ITEM: TIMESTEP
0
ITEM: NUMBER OF ATOMS
8000
ITEM: BOX BOUNDS pp pp pp
0.0000000000000000e+00 5.4309497784052098e+01
0.0000000000000000e+00 5.4309497784052098e+01
0.0000000000000000e+00 5.4309497784052098e+01
ITEM: ATOMS id type x y z v_p1 v_p2 v_p3 v_p4 v_p5 v_p6 
1 1        0.0000000000000000        0.0000000000000000        0.0000000000000000        0.0000000000000018        0.0000000000000018        0.0000000000000015       -0.0000000000000116       -0.0000000000000125       -0.0000000000000125s 
2 1        0.0000000000000000        2.7154748892026048        2.7154748892026048       -0.0000000000000160       -0.0000000000000220       -0.0000000000000220       -0.0000000000000016        0.0000000000000019       -0.0000000000000118s 
3 1        2.7154748892026048        0.0000000000000000        2.7154748892026048       -0.0000000000000220       -0.0000000000000160       -0.0000000000000220       -0.0000000000000016       -0.0000000000000118        0.0000000000000019s 
4 1        2.7154748892026048        2.7154748892026048        0.0000000000000000       -0.0000000000000202       -0.0000000000000202       -0.0000000000000140       -0.0000000000000134        0.0000000000000001        0.0000000000000001s 
5 1        1.3577374446013024        1.3577374446013024        1.3577374446013024       -0.0000000000000258       -0.0000000000000258       -0.0000000000000257       -0.0000000000000023       -0.0000000000000024       -0.0000000000000024s 
6 1        1.3577374446013024        4.0732123338039070        4.0732123338039070       -0.0000000000000243       -0.0000000000000264       -0.0000000000000265       -0.0000000000000016       -0.0000000000000014        0.0000000000000009s 
7 1        4.0732123338039070        1.3577374446013024        4.0732123338039070       -0.0000000000000264       -0.0000000000000243       -0.0000000000000265       -0.0000000000000016        0.0000000000000009       -0.0000000000000014s 
8 1        4.0732123338039070        4.0732123338039070        1.3577374446013024       -0.0000000000000262       -0.0000000000000262       -0.0000000000000245        0.0000000000000007       -0.0000000000000015       -0.0000000000000015s 
9 1        5.4309497784052096        0.0000000000000000        0.0000000000000000       -0.0000000000000127       -0.0000000000000079       -0.0000000000000075       -0.0000000000000122       -0.0000000000000126       -0.0000000000000017s 
10 1        5.4309497784052096        2.7154748892026048        2.7154748892026048       -0.0000000000000283       -0.0000000000000295       -0.0000000000000299        0.0000000000000004       -0.0000000000000000        0.0000000000000001s 
11 1        8.1464246676078140        0.0000000000000000        2.7154748892026048       -0.0000000000000117       -0.0000000000000081       -0.0000000000000142       -0.0000000000000015       -0.0000000000000107        0.0000000000000079s 
12 1        8.1464246676078140        2.7154748892026048        0.0000000000000000       -0.0000000000000137       -0.0000000000000172       -0.0000000000000109       -0.0000000000000130       -0.0000000000000037        0.0000000000000052s 
13 1        6.7886872230065123        1.3577374446013024        1.3577374446013024       -0.0000000000000281       -0.0000000000000261       -0.0000000000000264       -0.0000000000000014       -0.0000000000000015       -0.0000000000000020s 
14 1        6.7886872230065123        4.0732123338039070        4.0732123338039070       -0.0000000000000292       -0.0000000000000291       -0.0000000000000291       -0.0000000000000034        0.0000000000000010        0.0000000000000039s 
15 1        9.5041621122091176        1.3577374446013024        4.0732123338039070       -0.0000000000000229       -0.0000000000000219       -0.0000000000000237       -0.0000000000000005       -0.0000000000000004        0.0000000000000075s 
16 1        9.5041621122091176        4.0732123338039070        1.3577374446013024       -0.0000000000000251       -0.0000000000000261       -0.0000000000000238       -0.0000000000000026       -0.0000000000000026        0.0000000000000055s 
17 1       10.8618995568104193        0.0000000000000000        0.0000000000000000       -0.0000000000000159       -0.0000000000000085       -0.0000000000000088       -0.0000000000000098       -0.0000000000000099       -0.0000000000000004s 
18 1       10.8618995568104193        2.7154748892026048        2.7154748892026048       -0.0000000000000344       -0.0000000000000334       -0.0000000000000328       -0.0000000000000020       -0.0000000000000017        0.0000000000000022s 
19 1       13.5773744460130246        0.0000000000000000        2.7154748892026048       -0.0000000000000181       -0.0000000000000135       -0.0000000000000195       -0.0000000000000026       -0.0000000000000112       -0.0000000000000071s 
20 1       13.5773744460130246        2.7154748892026048        0.0000000000000000       -0.0000000000000181       -0.0000000000000195       -0.0000000000000135       -0.0000000000000112       -0.0000000000000026       -0.0000000000000071s 
21 1       12.2196370014117210        1.3577374446013024        1.3577374446013024       -0.0000000000000205       -0.0000000000000188       -0.0000000000000188       -0.0000000000000023       -0.0000000000000023       -0.0000000000000067s 
22 1       12.2196370014117210        4.0732123338039070        4.0732123338039070       -0.0000000000000229       -0.0000000000000244       -0.0000000000000245       -0.0000000000000003       -0.0000000000000004       -0.0000000000000077s 
23 1       14.9351118906143263        1.3577374446013024        4.0732123338039070       -0.0000000000000339       -0.0000000000000282       -0.0000000000000303       -0.0000000000000029       -0.0000000000000028       -0.0000000000000007s 
24 1       14.9351118906143263        4.0732123338039070        1.3577374446013024       -0.0000000000000340       -0.0000000000000300       -0.0000000000000280       -0.0000000000000026       -0.0000000000000027       -0.0000000000000004s 
25 1       16.2928493352156281        0.0000000000000000        0.0000000000000000       -0.0000000000000158       -0.0000000000000086       -0.0000000000000086       -0.0000000000000096       -0.0000000000000096       -0.0000000000000018s 
26 1       16.2928493352156281        2.7154748892026048        2.7154748892026048       -0.0000000000000337       -0.0000000000000329       -0.0000000000000329       -0.0000000000000019       -0.0000000000000019        0.0000000000000002s 
27 1       19.0083242244182351        0.0000000000000000        2.7154748892026048       -0.0000000000000072       -0.0000000000000076       -0.0000000000000138       -0.0000000000000012       -0.0000000000000123       -0.0000000000000131s 
28 1       19.0083242244182351        2.7154748892026048        0.0000000000000000       -0.0000000000000072       -0.0000000000000138       -0.0000000000000076       -0.0000000000000123       -0.0000000000000012       -0.0000000000000131s 
29 1       17.6505867798169298        1.3577374446013024        1.3577374446013024       -0.0000000000000114       -0.0000000000000157       -0.0000000000000157       -0.0000000000000022       -0.0000000000000022       -0.0000000000000106s 
30 1       17.6505867798169298        4.0732123338039070        4.0732123338039070       -0.0000000000000141       -0.0000000000000202       -0.0000000000000203       -0.0000000000000002       -0.0000000000000003       -0.0000000000000126s 
31 1       20.3660616690195369        1.3577374446013024        4.0732123338039070       -0.0000000000000321       -0.0000000000000281       -0.0000000000000295       -0.0000000000000032       -0.0000000000000027       -0.0000000000000016s 
32 1       20.3660616690195369        4.0732123338039070        1.3577374446013024       -0.0000000000000322       -0.0000000000000293       -0.0000000000000278       -0.0000000000000025       -0.0000000000000030       -0.0000000000000013s 
33 1       21.7237991136208386        0.0000000000000000        0.0000000000000000       -0.0000000000000194       -0.0000000000000097       -0.0000000000000093       -0.0000000000000096       -0.0000000000000100        0.0000000000000001s 
34 1       21.7237991136208386        2.7154748892026048        2.7154748892026048       -0.0000000000000378       -0.0000000000000338       -0.0000000000000341       -0.0000000000000016       -0.0000000000000019        0.0000000000000022s 
35 1       24.4392740028234421        0.0000000000000000        2.7154748892026048       -0.0000000000000064       -0.0000000000000066       -0.0000000000000134       -0.0000000000000023       -0.0000000000000122        0.0000000000000086s 
36 1       24.4392740028234421        2.7154748892026048        0.0000000000000000       -0.0000000000000049       -0.0000000000000109       -0.0000000000000049       -0.0000000000000101       -0.0000000000000007        0.0000000000000108s 
37 1       23.0815365582221403        1.3577374446013024        1.3577374446013024       -0.0000000000000273       -0.0000000000000233       -0.0000000000000232       -0.0000000000000016       -0.0000000000000016        0.0000000000000008s 
38 1       23.0815365582221403        4.0732123338039070        4.0732123338039070       -0.0000000000000317       -0.0000000000000309       -0.0000000000000309       -0.0000000000000027        0.0000000000000018        0.0000000000000020s 
39 1       25.7970114474247474        1.3577374446013024        4.0732123338039070       -0.0000000000000164       -0.0000000000000199       -0.0000000000000217       -0.0000000000000024       -0.0000000000000022        0.0000000000000106s 
40 1       25.7970114474247474        4.0732123338039070        1.3577374446013024       -0.0000000000000141       -0.0000000000000196       -0.0000000000000179       -0.0000000000000003       -0.0000000000000005        0.0000000000000123s 
41 1       27.1547488920260491        0.0000000000000000        0.0000000000000000       -0.0000000000000161       -0.0000000000000091       -0.0000000000000083       -0.0000000000000094       -0.0000000000000097        0.0000000000000017s 
42 1       27.1547488920260491        2.7154748892026048        2.7154748892026048       -0.0000000000000338       -0.0000000000000324       -0.0000000000000335       -0.0000000000000014       -0.0000000000000019        0.0000000000000043s 
43 1       29.8702237812286526        0.0000000000000000        2.7154748892026048       -0.0000000000000285       -0.0000000000000184       -0.0000000000000245       -0.0000000000000022       -0.0000000000000117       -0.0000000000000025s 
44 1       29.8702237812286526        2.7154748892026048        0.0000000000000000       -0.0000000000000285       -0.0000000000000245       -0.0000000000000184       -0.0000000000000117       -0.0000000000000022       -0.0000000000000025s 
45 1       28.5124863366273509        1.3577374446013024        1.3577374446013024       -0.0000000000000297       -0.0000000000000238       -0.0000000000000238       -0.0000000000000014       -0.0000000000000014       -0.0000000000000004s 
46 1       28.5124863366273509        4.0732123338039070        4.0732123338039070       -0.0000000000000350       -0.0000000000000316       -0.0000000000000319       -0.0000000000000030        0.0000000000000012        0.0000000000000003s 
47 1       31.2279612258299544        1.3577374446013024        4.0732123338039070       -0.0000000000000319       -0.0000000000000279       -0.0000000000000296       -0.0000000000000027       -0.0000000000000015        0.0000000000000016s 
48 1       31.2279612258299544        4.0732123338039070        1.3577374446013024       -0.0000000000000318       -0.0000000000000295       -0.0000000000000274       -0.0000000000000012       -0.0000000000000028        0.0000000000000018s 
49 1       32.5856986704312561        0.0000000000000000        0.0000000000000000       -0.0000000000000028       -0.0000000000000007       -0.0000000000000007       -0.0000000000000099       -0.0000000000000099        0.0000000000000123s 
50 1       32.5856986704312561        2.7154748892026048        2.7154748892026048       -0.0000000000000199       -0.0000000000000242       -0.0000000000000242       -0.0000000000000017       -0.0000000000000017        0.0000000000000141s 
51 1       35.3011735596338596        0.0000000000000000        2.7154748892026048       -0.0000000000000261       -0.0000000000000199       -0.0000000000000266       -0.0000000000000021       -0.0000000000000117        0.0000000000000243s 
52 1       35.3011735596338596        2.7154748892026048        0.0000000000000000       -0.0000000000000245       -0.0000000000000245       -0.0000000000000178       -0.0000000000000098       -0.0000000000000007        0.0000000000000265s 
53 1       33.9434361150325614        1.3577374446013024        1.3577374446013024       -0.0000000000000330       -0.0000000000000280       -0.0000000000000280       -0.0000000000000007       -0.0000000000000007        0.0000000000000261s 
54 1       33.9434361150325614        4.0732123338039070        4.0732123338039070       -0.0000000000000310       -0.0000000000000299       -0.0000000000000299       -0.0000000000000031       -0.0000000000000031        0.0000000000000271s 
55 1       36.6589110042351649        1.3577374446013024        4.0732123338039070        0.0000000000000001       -0.0000000000000101       -0.0000000000000121       -0.0000000000000020       -0.0000000000000015       -0.0000000000000002s 
56 1       36.6589110042351649        4.0732123338039070        1.3577374446013024        0.0000000000000041       -0.0000000000000074       -0.0000000000000064       -0.0000000000000015        0.0000000000000011       -0.0000000000000005s 
57 1       38.0166484488364702        0.0000000000000000        0.0000000000000000       -0.0000000000000143       -0.0000000000000072       -0.0000000000000068       -0.0000000000000128       -0.0000000000000129       -0.0000000000000225s 
58 1       38.0166484488364702        2.7154748892026048        2.7154748892026048       -0.0000000000000342       -0.0000000000000339       -0.0000000000000343       -0.0000000000000036       -0.0000000000000002       -0.0000000000000257s 
59 1       40.7321233380390737        0.0000000000000000        2.7154748892026048       -0.0000000000000276       -0.0000000000000173       -0.0000000000000232       -0.0000000000000007       -0.0000000000000119       -0.0000000000000263s 
60 1       40.7321233380390737        2.7154748892026048        0.0000000000000000       -0.0000000000000297       -0.0000000000000264       -0.0000000000000198       -0.0000000000000139       -0.0000000000000039       -0.0000000000000290s 
61 1       39.3743858934377684        1.3577374446013024        1.3577374446013024       -0.0000000000000356       -0.0000000000000295       -0.0000000000000295       -0.0000000000000010       -0.0000000000000010       -0.0000000000000284s 
62 1       39.3743858934377684        4.0732123338039070        4.0732123338039070       -0.0000000000000352       -0.0000000000000310       -0.0000000000000317       -0.0000000000000028       -0.0000000000000035       -0.0000000000000278s 
63 1       42.0898607826403719        1.3577374446013024        4.0732123338039070       -0.0000000000000308       -0.0000000000000297       -0.0000000000000311       -0.0000000000000012        0.0000000000000001       -0.0000000000000234s 
64 1       42.0898607826403719        4.0732123338039070        1.3577374446013024       -0.0000000000000312       -0.0000000000000315       -0.0000000000000294       -0.0000000000000036       -0.0000000000000012       -0.0000000000000275s 
65 1       43.4475982272416772        0.0000000000000000        0.0000000000000000        0.0000000000000144        0.0000000000000092        0.0000000000000085       -0.0000000000000096       -0.0000000000000101       -0.0000000000000009s 
66 1       43.4475982272416772        2.7154748892026048        2.7154748892026048       -0.0000000000000011       -0.0000000000000128       -0.0000000000000128       -0.0000000000000037        0.0000000000000002       -0.0000000000000004s 
67 1       46.1630731164442807        0.0000000000000000        2.7154748892026048       -0.0000000000000315       -0.0000000000000213       -0.0000000000000279       -0.0000000000000028       -0.0000000000000116        0.0000000000000270s 
68 1       46.1630731164442807        2.7154748892026048        0.0000000000000000       -0.0000000000000299       -0.0000000000000255       -0.0000000000000195       -0.0000000000000100       -0.0000000000000002        0.0000000000000291s 
69 1       44.8053356718429825        1.3577374446013024        1.3577374446013024       -0.0000000000000296       -0.0000000000000274       -0.0000000000000270       -0.0000000000000007       -0.0000000000000011        0.0000000000000244s 
70 1       44.8053356718429825        4.0732123338039070        4.0732123338039070       -0.0000000000000292       -0.0000000000000293       -0.0000000000000297       -0.0000000000000027       -0.0000000000000030        0.0000000000000262s 
71 1       47.5208105610455860        1.3577374446013024        4.0732123338039070       -0.0000000000000365       -0.0000000000000309       -0.0000000000000322       -0.0000000000000004       -0.0000000000000034        0.0000000000000259s 
72 1       47.5208105610455860        4.0732123338039070        1.3577374446013024       -0.0000000000000365       -0.0000000000000329       -0.0000000000000312        0.0000000000000006       -0.0000000000000003        0.0000000000000299s 
73 1       48.8785480056468842        0.0000000000000000        0.0000000000000000       -0.0000000000000149       -0.0000000000000087       -0.0000000000000080       -0.0000000000000101       -0.0000000000000094        0.0000000000000224s 
74 1       48.8785480056468842        2.7154748892026048        2.7154748892026048       -0.0000000000000343       -0.0000000000000343       -0.0000000000000343        0.0000000000000006       -0.0000000000000038        0.0000000000000253s 
75 1       51.5940228948494948        0.0000000000000000        2.7154748892026048       -0.0000000000000227       -0.0000000000000160       -0.0000000000000221       -0.0000000000000007       -0.0000000000000118       -0.0000000000000239s 
76 1       51.5940228948494948        2.7154748892026048        0.0000000000000000       -0.0000000000000248       -0.0000000000000252       -0.0000000000000185       -0.0000000000000138       -0.0000000000000039       -0.0000000000000265s 
77 1       50.2362854502481895        1.3577374446013024        1.3577374446013024        0.0000000000000033       -0.0000000000000061       -0.0000000000000061       -0.0000000000000011       -0.0000000000000011       -0.0000000000000000s 
78 1       50.2362854502481895        4.0732123338039070        4.0732123338039070        0.0000000000000035       -0.0000000000000088       -0.0000000000000081       -0.0000000000000033       -0.0000000000000027        0.0000000000000008s 
79 1       52.9517603394507930        1.3577374446013024        4.0732123338039070       -0.0000000000000329       -0.0000000000000305       -0.0000000000000314       -0.0000000000000013       -0.0000000000000001       -0.0000000000000244s 
80 1       52.9517603394507930        4.0732123338039070        1.3577374446013024       -0.0000000000000325       -0.0000000000000313       -0.0000000000000302       -0.0000000000000035       -0.0000000000000010       -0.0000000000000281s 
81 1        0.0000000000000000        5.4309497784052096        0.0000000000000000       -0.0000000000000079       -0.0000000000000127       -0.0000000000000075       -0.0000000000000122       -0.0000000000000017       -0.0000000000000126s 
82 1        0.0000000000000000        8.1464246676078140        2.7154748892026048       -0.0000000000000081       -0.0000000000000117       -0.0000000000000142       -0.0000000000000015        0.0000000000000079       -0.0000000000000107s 
83 1        2.7154748892026048        5.4309497784052096        2.7154748892026048       -0.0000000000000295       -0.0000000000000283       -0.0000000000000299        0.0000000000000004        0.0000000000000001       -0.0000000000000000s 
84 1        2.7154748892026048        8.1464246676078140        0.0000000000000000       -0.0000000000000172       -0.0000000000000137       -0.0000000000000109       -0.0000000000000130        0.0000000000000052       -0.0000000000000037s 
85 1        1.3577374446013024        6.7886872230065123        1.3577374446013024       -0.0000000000000261       -0.0000000000000281       -0.0000000000000264       -0.0000000000000014       -0.0000000000000020       -0.0000000000000015s 
86 1        1.3577374446013024        9.5041621122091176        4.0732123338039070       -0.0000000000000219       -0.0000000000000229       -0.0000000000000237       -0.0000000000000005        0.0000000000000075       -0.0000000000000004s 
87 1        4.0732123338039070        6.7886872230065123        4.0732123338039070       -0.0000000000000291       -0.0000000000000292       -0.0000000000000291       -0.0000000000000034        0.0000000000000039        0.0000000000000010s 
88 1        4.0732123338039070        9.5041621122091176        1.3577374446013024       -0.0000000000000261       -0.0000000000000251       -0.0000000000000238       -0.0000000000000026        0.0000000000000055       -0.0000000000000026s 
89 1        5.4309497784052096        5.4309497784052096        0.0000000000000000       -0.0000000000000133       -0.0000000000000133       -0.0000000000000078       -0.0000000000000128       -0.0000000000000004       -0.0000000000000004s 
90 1        5.4309497784052096        8.1464246676078140        2.7154748892026048       -0.0000000000000237       -0.0000000000000224       -0.0000000000000243       -0.0000000000000014        0.0000000000000087        0.0000000000000020s 
91 1        8.1464246676078140        5.4309497784052096        2.7154748892026048       -0.0000000000000224       -0.0000000000000237       -0.0000000000000243       -0.0000000000000014        0.0000000000000020        0.0000000000000087s 
92 1        8.1464246676078140        8.1464246676078140        0.0000000000000000       -0.0000000000000128       -0.0000000000000128       -0.0000000000000077       -0.0000000000000128        0.0000000000000061        0.0000000000000061s 
93 1        6.7886872230065123        6.7886872230065123        1.3577374446013024       -0.0000000000000269       -0.0000000000000269       -0.0000000000000265       -0.0000000000000015        0.0000000000000033        0.0000000000000033s 
94 1        6.7886872230065123        9.5041621122091176        4.0732123338039070       -0.0000000000000270       -0.0000000000000263       -0.0000000000000272       -0.0000000000000005        0.0000000000000077        0.0000000000000049s 
95 1        9.5041621122091176        6.7886872230065123        4.0732123338039070       -0.0000000000000263       -0.0000000000000270       -0.0000000000000272       -0.0000000000000005        0.0000000000000049        0.0000000000000077s 
96 1        9.5041621122091176        9.5041621122091176        1.3577374446013024       -0.0000000000000229       -0.0000000000000229       -0.0000000000000213       -0.0000000000000017        0.0000000000000052        0.0000000000000052s 
97 1       10.8618995568104193        5.4309497784052096        0.0000000000000000       -0.0000000000000244       -0.0000000000000215       -0.0000000000000160       -0.0000000000000093        0.0000000000000003       -0.0000000000000001s 
98 1       10.8618995568104193        8.1464246676078140        2.7154748892026048       -0.0000000000000305       -0.0000000000000281       -0.0000000000000283       -0.0000000000000020        0.0000000000000082        0.0000000000000022s 
99 1       13.5773744460130246        5.4309497784052096        2.7154748892026048       -0.0000000000000238       -0.0000000000000238       -0.0000000000000249       -0.0000000000000011       -0.0000000000000021       -0.0000000000000079s 
100 1       13.5773744460130246        8.1464246676078140        0.0000000000000000       -0.0000000000000150       -0.0000000000000137       -0.0000000000000097       -0.0000000000000122        0.0000000000000046       -0.0000000000000038s 
101 1       12.2196370014117210        6.7886872230065123        1.3577374446013024       -0.0000000000000232       -0.0000000000000251       -0.0000000000000232       -0.0000000000000019        0.0000000000000023       -0.0000000000000056s 
102 1       12.2196370014117210        9.5041621122091176        4.0732123338039070       -0.0000000000000226       -0.0000000000000226       -0.0000000000000238        0.0000000000000024        0.0000000000000061       -0.0000000000000061s 
103 1       14.9351118906143263        6.7886872230065123        4.0732123338039070       -0.0000000000000379       -0.0000000000000349       -0.0000000000000350       -0.0000000000000029        0.0000000000000027       -0.0000000000000012s 
104 1       14.9351118906143263        9.5041621122091176        1.3577374446013024       -0.0000000000000311       -0.0000000000000261       -0.0000000000000252       -0.0000000000000015        0.0000000000000060       -0.0000000000000005s 
105 1       16.2928493352156281        5.4309497784052096        0.0000000000000000       -0.0000000000000240       -0.0000000000000217       -0.0000000000000157       -0.0000000000000095        0.0000000000000004       -0.0000000000000018s 
106 1       16.2928493352156281        8.1464246676078140        2.7154748892026048       -0.0000000000000302       -0.0000000000000271       -0.0000000000000291       -0.0000000000000008        0.0000000000000081        0.0000000000000004s 
107 1       19.0083242244182351        5.4309497784052096        2.7154748892026048       -0.0000000000000148       -0.0000000000000196       -0.0000000000000206       -0.0000000000000011       -0.0000000000000020       -0.0000000000000127s 
108 1       19.0083242244182351        8.1464246676078140        0.0000000000000000       -0.0000000000000052       -0.0000000000000085       -0.0000000000000040       -0.0000000000000124        0.0000000000000044       -0.0000000000000094s 
109 1       17.6505867798169298        6.7886872230065123        1.3577374446013024       -0.0000000000000142       -0.0000000000000204       -0.0000000000000190       -0.0000000000000015        0.0000000000000025       -0.0000000000000108s 
110 1       17.6505867798169298        9.5041621122091176        4.0732123338039070       -0.0000000000000110       -0.0000000000000164       -0.0000000000000173        0.0000000000000002        0.0000000000000079       -0.0000000000000129s 
111 1       20.3660616690195369        6.7886872230065123        4.0732123338039070       -0.0000000000000360       -0.0000000000000348       -0.0000000000000342       -0.0000000000000024        0.0000000000000023       -0.0000000000000021s 
112 1       20.3660616690195369        9.5041621122091176        1.3577374446013024       -0.0000000000000289       -0.0000000000000254       -0.0000000000000248       -0.0000000000000014        0.0000000000000057       -0.0000000000000016s 
113 1       21.7237991136208386        5.4309497784052096        0.0000000000000000       -0.0000000000000273       -0.0000000000000220       -0.0000000000000170       -0.0000000000000091       -0.0000000000000001       -0.0000000000000001s 
114 1       21.7237991136208386        8.1464246676078140        2.7154748892026048       -0.0000000000000336       -0.0000000000000275       -0.0000000000000305       -0.0000000000000013        0.0000000000000087        0.0000000000000021s 
115 1       24.4392740028234421        5.4309497784052096        2.7154748892026048       -0.0000000000000146       -0.0000000000000198       -0.0000000000000209       -0.0000000000000019        0.0000000000000016        0.0000000000000124s 
116 1       24.4392740028234421        8.1464246676078140        0.0000000000000000       -0.0000000000000035       -0.0000000000000073       -0.0000000000000030       -0.0000000000000096        0.0000000000000087        0.0000000000000108s 
117 1       23.0815365582221403        6.7886872230065123        1.3577374446013024       -0.0000000000000310       -0.0000000000000297       -0.0000000000000280       -0.0000000000000021        0.0000000000000024        0.0000000000000015s 
118 1       23.0815365582221403        9.5041621122091176        4.0732123338039070       -0.0000000000000310       -0.0000000000000288       -0.0000000000000300       -0.0000000000000008        0.0000000000000078        0.0000000000000033s 
119 1       25.7970114474247474        6.7886872230065123        4.0732123338039070       -0.0000000000000167       -0.0000000000000229       -0.0000000000000231       -0.0000000000000012        0.0000000000000042        0.0000000000000121s 
120 1       25.7970114474247474        9.5041621122091176        1.3577374446013024       -0.0000000000000114       -0.0000000000000164       -0.0000000000000150        0.0000000000000002        0.0000000000000072        0.0000000000000121s 
121 1       27.1547488920260491        5.4309497784052096        0.0000000000000000       -0.0000000000000238       -0.0000000000000215       -0.0000000000000158       -0.0000000000000090       -0.0000000000000003        0.0000000000000016s 
122 1       27.1547488920260491        8.1464246676078140        2.7154748892026048       -0.0000000000000301       -0.0000000000000268       -0.0000000000000294       -0.0000000000000022        0.0000000000000081        0.0000000000000039s 
123 1       29.8702237812286526        5.4309497784052096        2.7154748892026048       -0.0000000000000368       -0.0000000000000313       -0.0000000000000333       -0.0000000000000038       -0.0000000000000004        0.0000000000000000s 