ITEM: TIMESTEP
1
ITEM: NUMBER OF ATOMS
8000
ITEM: BOX BOUNDS pp pp pp
0.0000000000000000e+00 5.4309497784052098e+01
0.0000000000000000e+00 5.4852592761892616e+01
0.0000000000000000e+00 5.4309497784052098e+01
ITEM: ATOMS id type x y z v_p1 v_p2 v_p3 v_p4 v_p5 v_p6 
1 1        0.0000000000000000        0.0000000000000000        0.0000000000000000        0.0941456140128521        0.1890029989644349        0.0941456140128521       -0.0000000000000107        0.0000000000000063       -0.0000000000000107 
2 1        0.0000000000000000        2.7426296380946309        2.7154748892026048        0.0941456140128471        0.1890029989644364        0.0941456140128406        0.0000000000000004       -0.0000000000000003       -0.0000000000000088 
3 1        2.7154748892026048        0.0000000000000000        2.7154748892026048        0.0941456140128304        0.1890029989644183        0.0941456140128304       -0.0000000000000023        0.0000000000000036       -0.0000000000000023 
4 1        2.7154748892026048        2.7426296380946309        0.0000000000000000        0.0941456140128433        0.1890029989644396        0.0941456140128500       -0.0000000000000112        0.0000000000000022       -0.0000000000000024 
5 1        1.3577374446013024        1.3713148190473154        1.3577374446013024        0.0941456140128412        0.1890029989644304        0.0941456140128405       -0.0000000000000019        0.0000000000000005       -0.0000000000000017 
6 1        1.3577374446013024        4.1139444571419466        4.0732123338039070        0.0941456140128385        0.1890029989644294        0.0941456140128363       -0.0000000000000016        0.0000000000000011       -0.0000000000000003 
7 1        4.0732123338039070        1.3713148190473154        4.0732123338039070        0.0941456140128347        0.1890029989644280        0.0941456140128347       -0.0000000000000010       -0.0000000000000004       -0.0000000000000010 
8 1        4.0732123338039070        4.1139444571419466        1.3577374446013024        0.0941456140128358        0.1890029989644296        0.0941456140128379       -0.0000000000000001        0.0000000000000005       -0.0000000000000014 
9 1        5.4309497784052096        0.0000000000000000        0.0000000000000000        0.0941456140128393        0.1890029989644266        0.0941456140128450       -0.0000000000000121        0.0000000000000079       -0.0000000000000009 
10 1        5.4309497784052096        2.7426296380946309        2.7154748892026048        0.0941456140128370        0.1890029989644314        0.0941456140128359        0.0000000000000006       -0.0000000000000005        0.0000000000000000 
11 1        8.1464246676078140        0.0000000000000000        2.7154748892026048        0.0941456140128331        0.1890029989644192        0.0941456140128323        0.0000000000000008        0.0000000000000055        0.0000000000000060 
12 1        8.1464246676078140        2.7426296380946309        0.0000000000000000        0.0941456140128464        0.1890029989644402        0.0941456140128513       -0.0000000000000131       -0.0000000000000006        0.0000000000000054 
13 1        6.7886872230065123        1.3713148190473154        1.3577374446013024        0.0941456140128340        0.1890029989644273        0.0941456140128355       -0.0000000000000018        0.0000000000000013        0.0000000000000034 
14 1        6.7886872230065123        4.1139444571419466        4.0732123338039070        0.0941456140128348        0.1890029989644297        0.0941456140128347       -0.0000000000000018        0.0000000000000021        0.0000000000000020 
15 1        9.5041621122091176        1.3713148190473154        4.0732123338039070        0.0941456140128347        0.1890029989644272        0.0941456140128354        0.0000000000000010        0.0000000000000008        0.0000000000000050 
16 1        9.5041621122091176        4.1139444571419466        1.3577374446013024        0.0941456140128359        0.1890029989644290        0.0941456140128366       -0.0000000000000024        0.0000000000000002        0.0000000000000057 
17 1       10.8618995568104193        0.0000000000000000        0.0000000000000000        0.0941456140128330        0.1890029989644224        0.0941456140128415       -0.0000000000000113        0.0000000000000063       -0.0000000000000008 
18 1       10.8618995568104193        2.7426296380946309        2.7154748892026048        0.0941456140128310        0.1890029989644277        0.0941456140128321        0.0000000000000005       -0.0000000000000005       -0.0000000000000003 
19 1       13.5773744460130246        0.0000000000000000        2.7154748892026048        0.0941456140128320        0.1890029989644194        0.0941456140128311       -0.0000000000000003        0.0000000000000054       -0.0000000000000049 
20 1       13.5773744460130246        2.7426296380946309        0.0000000000000000        0.0941456140128450        0.1890029989644406        0.0941456140128505       -0.0000000000000132       -0.0000000000000003       -0.0000000000000053 
21 1       12.2196370014117210        1.3713148190473154        1.3577374446013024        0.0941456140128353        0.1890029989644283        0.0941456140128368       -0.0000000000000015        0.0000000000000009       -0.0000000000000050 
22 1       12.2196370014117210        4.1139444571419466        4.0732123338039070        0.0941456140128361        0.1890029989644296        0.0941456140128355       -0.0000000000000030        0.0000000000000029       -0.0000000000000048 
23 1       14.9351118906143263        1.3713148190473154        4.0732123338039070        0.0941456140128280        0.1890029989644235        0.0941456140128318        0.0000000000000010        0.0000000000000008       -0.0000000000000011 
24 1       14.9351118906143263        4.1139444571419466        1.3577374446013024        0.0941456140128275        0.1890029989644238        0.0941456140128322       -0.0000000000000012        0.0000000000000010       -0.0000000000000011 
25 1       16.2928493352156281        0.0000000000000000        0.0000000000000000        0.0941456140128329        0.1890029989644228        0.0941456140128412       -0.0000000000000105        0.0000000000000067       -0.0000000000000025 
26 1       16.2928493352156281        2.7426296380946309        2.7154748892026048        0.0941456140128305        0.1890029989644275        0.0941456140128321       -0.0000000000000001       -0.0000000000000004       -0.0000000000000023 
27 1       19.0083242244182351        0.0000000000000000        2.7154748892026048        0.0941456140128400        0.1890029989644225        0.0941456140128340       -0.0000000000000014        0.0000000000000070       -0.0000000000000087 
28 1       19.0083242244182351        2.7426296380946309        0.0000000000000000        0.0941456140128548        0.1890029989644449        0.0941456140128547       -0.0000000000000131       -0.0000000000000001       -0.0000000000000099 
29 1       17.6505867798169298        1.3713148190473154        1.3577374446013024        0.0941456140128449        0.1890029989644334        0.0941456140128418       -0.0000000000000016        0.0000000000000009       -0.0000000000000104 
30 1       17.6505867798169298        4.1139444571419466        4.0732123338039070        0.0941456140128481        0.1890029989644359        0.0941456140128419       -0.0000000000000014        0.0000000000000011       -0.0000000000000117 
31 1       20.3660616690195369        1.3713148190473154        4.0732123338039070        0.0941456140128300        0.1890029989644243        0.0941456140128321        0.0000000000000009        0.0000000000000009       -0.0000000000000022 
32 1       20.3660616690195369        4.1139444571419466        1.3577374446013024        0.0941456140128291        0.1890029989644245        0.0941456140128324       -0.0000000000000014        0.0000000000000013       -0.0000000000000020 
33 1       21.7237991136208386        0.0000000000000000        0.0000000000000000        0.0941456140128295        0.1890029989644225        0.0941456140128396       -0.0000000000000114        0.0000000000000070       -0.0000000000000008 
34 1       21.7237991136208386        2.7426296380946309        2.7154748892026048        0.0941456140128264        0.1890029989644268        0.0941456140128306        0.0000000000000003       -0.0000000000000007       -0.0000000000000002 
35 1       24.4392740028234421        0.0000000000000000        2.7154748892026048        0.0941456140128426        0.1890029989644244        0.0941456140128362        0.0000000000000001        0.0000000000000047        0.0000000000000108 
36 1       24.4392740028234421        2.7426296380946309        0.0000000000000000        0.0941456140128550        0.1890029989644452        0.0941456140128548       -0.0000000000000129       -0.0000000000000008        0.0000000000000096 
37 1       23.0815365582221403        1.3713148190473154        1.3577374446013024        0.0941456140128300        0.1890029989644248        0.0941456140128338       -0.0000000000000014        0.0000000000000010        0.0000000000000020 
38 1       23.0815365582221403        4.1139444571419466        4.0732123338039070        0.0941456140128308        0.1890029989644268        0.0941456140128338       -0.0000000000000020        0.0000000000000023        0.0000000000000006 
39 1       25.7970114474247474        1.3713148190473154        4.0732123338039070        0.0941456140128471        0.1890029989644337        0.0941456140128420       -0.0000000000000008       -0.0000000000000016        0.0000000000000121 
40 1       25.7970114474247474        4.1139444571419466        1.3577374446013024        0.0941456140128456        0.1890029989644334        0.0941456140128410       -0.0000000000000028        0.0000000000000001        0.0000000000000106 
41 1       27.1547488920260491        0.0000000000000000        0.0000000000000000        0.0941456140128328        0.1890029989644229        0.0941456140128411       -0.0000000000000122        0.0000000000000069        0.0000000000000008 
42 1       27.1547488920260491        2.7426296380946309        2.7154748892026048        0.0941456140128304        0.1890029989644276        0.0941456140128319        0.0000000000000006       -0.0000000000000004        0.0000000000000018 
43 1       29.8702237812286526        0.0000000000000000        2.7154748892026048        0.0941456140128223        0.1890029989644149        0.0941456140128258        0.0000000000000003        0.0000000000000058        0.0000000000000001 
44 1       29.8702237812286526        2.7426296380946309        0.0000000000000000        0.0941456140128355        0.1890029989644362        0.0941456140128459       -0.0000000000000129       -0.0000000000000007       -0.0000000000000002 
45 1       28.5124863366273509        1.3713148190473154        1.3577374446013024        0.0941456140128264        0.1890029989644238        0.0941456140128330       -0.0000000000000014        0.0000000000000012        0.0000000000000002 
46 1       28.5124863366273509        4.1139444571419466        4.0732123338039070        0.0941456140128280        0.1890029989644261        0.0941456140128331       -0.0000000000000022        0.0000000000000018       -0.0000000000000009 
47 1       31.2279612258299544        1.3713148190473154        4.0732123338039070        0.0941456140128296        0.1890029989644239        0.0941456140128322        0.0000000000000012        0.0000000000000015        0.0000000000000018 
48 1       31.2279612258299544        4.1139444571419466        1.3577374446013024        0.0941456140128291        0.1890029989644245        0.0941456140128324       -0.0000000000000019        0.0000000000000007        0.0000000000000013 
49 1       32.5856986704312561        0.0000000000000000        0.0000000000000000        0.0941456140128484        0.1890029989644334        0.0941456140128502       -0.0000000000000139        0.0000000000000045        0.0000000000000128 
50 1       32.5856986704312561        2.7426296380946309        2.7154748892026048        0.0941456140128430        0.1890029989644354        0.0941456140128396       -0.0000000000000001       -0.0000000000000004        0.0000000000000114 
51 1       35.3011735596338596        0.0000000000000000        2.7154748892026048        0.0941456140128255        0.1890029989644142        0.0941456140128249       -0.0000000000000015        0.0000000000000064        0.0000000000000243 
52 1       35.3011735596338596        2.7426296380946309        0.0000000000000000        0.0941456140128394        0.1890029989644349        0.0941456140128461       -0.0000000000000131       -0.0000000000000002        0.0000000000000222 
53 1       33.9434361150325614        1.3713148190473154        1.3577374446013024        0.0941456140128280        0.1890029989644233        0.0941456140128322       -0.0000000000000013        0.0000000000000015        0.0000000000000233 
54 1       33.9434361150325614        4.1139444571419466        4.0732123338039070        0.0941456140128292        0.1890029989644256        0.0941456140128325       -0.0000000000000007        0.0000000000000005        0.0000000000000217 
55 1       36.6589110042351649        1.3713148190473154        4.0732123338039070        0.0941456140128642        0.1890029989644461        0.0941456140128536       -0.0000000000000040        0.0000000000000012       -0.0000000000000005 
56 1       36.6589110042351649        4.1139444571419466        1.3577374446013024        0.0941456140128608        0.1890029989644432        0.0941456140128513       -0.0000000000000019       -0.0000000000000010       -0.0000000000000004 
57 1       38.0166484488364702        0.0000000000000000        0.0000000000000000        0.0941456140128339        0.1890029989644230        0.0941456140128411       -0.0000000000000105        0.0000000000000064       -0.0000000000000240 
58 1       38.0166484488364702        2.7426296380946309        2.7154748892026048        0.0941456140128322        0.1890029989644277        0.0941456140128322        0.0000000000000025        0.0000000000000018       -0.0000000000000200 
59 1       40.7321233380390737        0.0000000000000000        2.7154748892026048        0.0941456140128201        0.1890029989644127        0.0941456140128232       -0.0000000000000012        0.0000000000000064       -0.0000000000000229 
60 1       40.7321233380390737        2.7426296380946309        0.0000000000000000        0.0941456140128361        0.1890029989644356        0.0941456140128462       -0.0000000000000114        0.0000000000000022       -0.0000000000000232 
61 1       39.3743858934377684        1.3713148190473154        1.3577374446013024        0.0941456140128250        0.1890029989644224        0.0941456140128325       -0.0000000000000018        0.0000000000000011       -0.0000000000000253 
62 1       39.3743858934377684        4.1139444571419466        4.0732123338039070        0.0941456140128318        0.1890029989644293        0.0941456140128366       -0.0000000000000018        0.0000000000000014       -0.0000000000000234 
63 1       42.0898607826403719        1.3713148190473154        4.0732123338039070        0.0941456140128342        0.1890029989644278        0.0941456140128359       -0.0000000000000038        0.0000000000000015       -0.0000000000000224 
64 1       42.0898607826403719        4.1139444571419466        1.3577374446013024        0.0941456140128337        0.1890029989644267        0.0941456140128359        0.0000000000000002        0.0000000000000006       -0.0000000000000202 
65 1       43.4475982272416772        0.0000000000000000        0.0000000000000000        0.0941456140128665        0.1890029989644436        0.0941456140128603       -0.0000000000000133        0.0000000000000038        0.0000000000000002 
66 1       43.4475982272416772        2.7426296380946309        2.7154748892026048        0.0941456140128600        0.1890029989644440        0.0941456140128482        0.0000000000000002       -0.0000000000000002        0.0000000000000002 
67 1       46.1630731164442807        0.0000000000000000        2.7154748892026048        0.0941456140128204        0.1890029989644130        0.0941456140128234       -0.0000000000000016        0.0000000000000065        0.0000000000000268 
68 1       46.1630731164442807        2.7426296380946309        0.0000000000000000        0.0941456140128340        0.1890029989644339        0.0941456140128442       -0.0000000000000132       -0.0000000000000003        0.0000000000000250 
69 1       44.8053356718429825        1.3713148190473154        1.3577374446013024        0.0941456140128311        0.1890029989644232        0.0941456140128339       -0.0000000000000016        0.0000000000000018        0.0000000000000218 
70 1       44.8053356718429825        4.1139444571419466        4.0732123338039070        0.0941456140128321        0.1890029989644261        0.0941456140128335       -0.0000000000000011        0.0000000000000010        0.0000000000000202 
71 1       47.5208105610455860        1.3713148190473154        4.0732123338039070        0.0941456140128288        0.1890029989644257        0.0941456140128335       -0.0000000000000035        0.0000000000000008        0.0000000000000252 
72 1       47.5208105610455860        4.1139444571419466        1.3577374446013024        0.0941456140128278        0.1890029989644254        0.0941456140128341       -0.0000000000000036        0.0000000000000009        0.0000000000000227 
73 1       48.8785480056468842        0.0000000000000000        0.0000000000000000        0.0941456140128363        0.1890029989644251        0.0941456140128430       -0.0000000000000129        0.0000000000000037        0.0000000000000231 
74 1       48.8785480056468842        2.7426296380946309        2.7154748892026048        0.0941456140128323        0.1890029989644278        0.0941456140128327       -0.0000000000000016        0.0000000000000016        0.0000000000000204 
75 1       51.5940228948494948        0.0000000000000000        2.7154748892026048        0.0941456140128253        0.1890029989644137        0.0941456140128249       -0.0000000000000014        0.0000000000000063       -0.0000000000000203 
76 1       51.5940228948494948        2.7426296380946309        0.0000000000000000        0.0941456140128414        0.1890029989644367        0.0941456140128479       -0.0000000000000112        0.0000000000000023       -0.0000000000000205 
77 1       50.2362854502481895        1.3713148190473154        1.3577374446013024        0.0941456140128600        0.1890029989644416        0.0941456140128516       -0.0000000000000014        0.0000000000000013       -0.0000000000000005 
78 1       50.2362854502481895        4.1139444571419466        4.0732123338039070        0.0941456140128620        0.1890029989644448        0.0941456140128515       -0.0000000000000013        0.0000000000000014       -0.0000000000000020 
79 1       52.9517603394507930        1.3713148190473154        4.0732123338039070        0.0941456140128327        0.1890029989644274        0.0941456140128355       -0.0000000000000036        0.0000000000000016       -0.0000000000000231 
80 1       52.9517603394507930        4.1139444571419466        1.3577374446013024        0.0941456140128318        0.1890029989644267        0.0941456140128351        0.0000000000000004        0.0000000000000011       -0.0000000000000211 
81 1        0.0000000000000000        5.4852592761892618        0.0000000000000000        0.0941456140128540        0.1890029989644424        0.0941456140128543       -0.0000000000000131        0.0000000000000007       -0.0000000000000132 
82 1        0.0000000000000000        8.2278889142838931        2.7154748892026048        0.0941456140128475        0.1890029989644365        0.0941456140128412        0.0000000000000007       -0.0000000000000033       -0.0000000000000134 
83 1        2.7154748892026048        5.4852592761892618        2.7154748892026048        0.0941456140128319        0.1890029989644263        0.0941456140128319        0.0000000000000001        0.0000000000000003        0.0000000000000001 
84 1        2.7154748892026048        8.2278889142838931        0.0000000000000000        0.0941456140128412        0.1890029989644365        0.0941456140128475       -0.0000000000000134       -0.0000000000000033        0.0000000000000007 
85 1        1.3577374446013024        6.8565740952365770        1.3577374446013024        0.0941456140128358        0.1890029989644285        0.0941456140128358       -0.0000000000000015       -0.0000000000000028       -0.0000000000000016 
86 1        1.3577374446013024        9.5992037333312084        4.0732123338039070        0.0941456140128375        0.1890029989644282        0.0941456140128353       -0.0000000000000041       -0.0000000000000010       -0.0000000000000019 
87 1        4.0732123338039070        6.8565740952365770        4.0732123338039070        0.0941456140128348        0.1890029989644290        0.0941456140128348       -0.0000000000000013       -0.0000000000000002       -0.0000000000000013 
88 1        4.0732123338039070        9.5992037333312084        1.3577374446013024        0.0941456140128353        0.1890029989644283        0.0941456140128375       -0.0000000000000019       -0.0000000000000010       -0.0000000000000041 
89 1        5.4309497784052096        5.4852592761892618        0.0000000000000000        0.0941456140128423        0.1890029989644344        0.0941456140128481       -0.0000000000000084        0.0000000000000001       -0.0000000000000006 
90 1        5.4309497784052096        8.2278889142838931        2.7154748892026048        0.0941456140128396        0.1890029989644325        0.0941456140128375       -0.0000000000000021       -0.0000000000000006        0.0000000000000018 
91 1        8.1464246676078140        5.4852592761892618        2.7154748892026048        0.0941456140128362        0.1890029989644273        0.0941456140128345       -0.0000000000000020       -0.0000000000000020        0.0000000000000055 
92 1        8.1464246676078140        8.2278889142838931        0.0000000000000000        0.0941456140128485        0.1890029989644427        0.0941456140128534       -0.0000000000000115       -0.0000000000000052        0.0000000000000074 
93 1        6.7886872230065123        6.8565740952365770        1.3577374446013024        0.0941456140128368        0.1890029989644312        0.0941456140128393       -0.0000000000000009       -0.0000000000000033        0.0000000000000040 
94 1        6.7886872230065123        9.5992037333312084        4.0732123338039070        0.0941456140128346        0.1890029989644281        0.0941456140128342        0.0000000000000008        0.0000000000000009        0.0000000000000041 
95 1        9.5041621122091176        6.8565740952365770        4.0732123338039070        0.0941456140128385        0.1890029989644329        0.0941456140128379       -0.0000000000000006       -0.0000000000000044        0.0000000000000024 
96 1        9.5041621122091176        9.5992037333312084        1.3577374446013024        0.0941456140128370        0.1890029989644283        0.0941456140128378       -0.0000000000000017        0.0000000000000007        0.0000000000000066 
97 1       10.8618995568104193        5.4852592761892618        0.0000000000000000        0.0941456140128344        0.1890029989644294        0.0941456140128420       -0.0000000000000105        0.0000000000000005        0.0000000000000004 
98 1       10.8618995568104193        8.2278889142838931        2.7154748892026048        0.0941456140128318        0.1890029989644292        0.0941456140128332        0.0000000000000012       -0.0000000000000046       -0.0000000000000001 
99 1       13.5773744460130246        5.4852592761892618        2.7154748892026048        0.0941456140128348        0.1890029989644271        0.0941456140128338       -0.0000000000000016        0.0000000000000021       -0.0000000000000044 
100 1       13.5773744460130246        8.2278889142838931        0.0000000000000000        0.0941456140128466        0.1890029989644414        0.0941456140128520       -0.0000000000000115       -0.0000000000000008       -0.0000000000000083 
101 1       12.2196370014117210        6.8565740952365770        1.3577374446013024        0.0941456140128406        0.1890029989644346        0.0941456140128407       -0.0000000000000024       -0.0000000000000039       -0.0000000000000051 
102 1       12.2196370014117210        9.5992037333312084        4.0732123338039070        0.0941456140128349        0.1890029989644264        0.0941456140128343       -0.0000000000000018        0.0000000000000012       -0.0000000000000034 
103 1       14.9351118906143263        6.8565740952365770        4.0732123338039070        0.0941456140128314        0.1890029989644304        0.0941456140128348        0.0000000000000004       -0.0000000000000038       -0.0000000000000023 
104 1       14.9351118906143263        9.5992037333312084        1.3577374446013024        0.0941456140128265        0.1890029989644219        0.0941456140128319       -0.0000000000000013        0.0000000000000000       -0.0000000000000006 
105 1       16.2928493352156281        5.4852592761892618        0.0000000000000000        0.0941456140128351        0.1890029989644295        0.0941456140128423       -0.0000000000000110        0.0000000000000003       -0.0000000000000014 
106 1       16.2928493352156281        8.2278889142838931        2.7154748892026048        0.0941456140128325        0.1890029989644291        0.0941456140128337        0.0000000000000004       -0.0000000000000040       -0.0000000000000016 
107 1       19.0083242244182351        5.4852592761892618        2.7154748892026048        0.0941456140128467        0.1890029989644338        0.0941456140128405        0.0000000000000004        0.0000000000000002       -0.0000000000000114 
108 1       19.0083242244182351        8.2278889142838931        0.0000000000000000        0.0941456140128568        0.1890029989644459        0.0941456140128565       -0.0000000000000111       -0.0000000000000009       -0.0000000000000131 
109 1       17.6505867798169298        6.8565740952365770        1.3577374446013024        0.0941456140128506        0.1890029989644391        0.0941456140128452       -0.0000000000000022       -0.0000000000000038       -0.0000000000000103 
110 1       17.6505867798169298        9.5992037333312084        4.0732123338039070        0.0941456140128469        0.1890029989644329        0.0941456140128406       -0.0000000000000002       -0.0000000000000009       -0.0000000000000101 
111 1       20.3660616690195369        6.8565740952365770        4.0732123338039070        0.0941456140128332        0.1890029989644307        0.0941456140128354       -0.0000000000000003       -0.0000000000000033       -0.0000000000000031 
112 1       20.3660616690195369        9.5992037333312084        1.3577374446013024        0.0941456140128282        0.1890029989644228        0.0941456140128319       -0.0000000000000014        0.0000000000000002       -0.0000000000000015 
113 1       21.7237991136208386        5.4852592761892618        0.0000000000000000        0.0941456140128315        0.1890029989644283        0.0941456140128416       -0.0000000000000111        0.0000000000000004        0.0000000000000004 
114 1       21.7237991136208386        8.2278889142838931        2.7154748892026048        0.0941456140128289        0.1890029989644287        0.0941456140128322        0.0000000000000007       -0.0000000000000044        0.0000000000000002 
115 1       24.4392740028234421        5.4852592761892618        2.7154748892026048        0.0941456140128468        0.1890029989644337        0.0941456140128404        0.0000000000000008        0.0000000000000004        0.0000000000000115 
116 1       24.4392740028234421        8.2278889142838931        0.0000000000000000        0.0941456140128577        0.1890029989644467        0.0941456140128571       -0.0000000000000109       -0.0000000000000042        0.0000000000000111 
117 1       23.0815365582221403        6.8565740952365770        1.3577374446013024        0.0941456140128328        0.1890029989644301        0.0941456140128362       -0.0000000000000015       -0.0000000000000044        0.0000000000000020 
118 1       23.0815365582221403        9.5992037333312084        4.0732123338039070        0.0941456140128296        0.1890029989644239        0.0941456140128327       -0.0000000000000008        0.0000000000000006        0.0000000000000017 
119 1       25.7970114474247474        6.8565740952365770        4.0732123338039070        0.0941456140128523        0.1890029989644415        0.0941456140128468       -0.0000000000000011       -0.0000000000000047        0.0000000000000116 
120 1       25.7970114474247474        9.5992037333312084        1.3577374446013024        0.0941456140128465        0.1890029989644324        0.0941456140128414       -0.0000000000000015        0.0000000000000001        0.0000000000000113 
121 1       27.1547488920260491        5.4852592761892618        0.0000000000000000        0.0941456140128349        0.1890029989644294        0.0941456140128423       -0.0000000000000107        0.0000000000000006        0.0000000000000021 
122 1       27.1547488920260491        8.2278889142838931        2.7154748892026048        0.0941456140128319        0.1890029989644294        0.0941456140128330        0.0000000000000008       -0.0000000000000043        0.0000000000000018 
123 1       29.8702237812286526        5.4852592761892618        2.7154748892026048        0.0941456140128244        0.1890029989644221        0.0941456140128289        0.0000000000000005        0.0000000000000002        0.0000000000000001 