ITEM: TIMESTEP
1
ITEM: NUMBER OF ATOMS
4000
ITEM: BOX BOUNDS pp pp pp
0.0000000000000000e+00 5.2921603615141905e+01
0.0000000000000000e+00 5.2921603615141905e+01
0.0000000000000000e+00 5.2921656536745516e+01
ITEM: ATOMS id type x y z 
1 1        0.0000000000000000        0.0000000000000000        0.0000000000000000 
2 1        0.0000000000000000        2.6460801807570951        2.6460828268372758 
3 1        2.6460801807570951        0.0000000000000000        2.6460801807570951 
4 1        2.6460801807570951        2.6460801807570951        0.0000026460801808 
5 1        5.2921603615141901        0.0000000000000000        0.0000000000000000 
6 1        5.2921603615141901        2.6460801807570951        2.6460828268372758 
7 1        7.9382405422712852        0.0000000000000000        2.6460801807570951 
8 1        7.9382405422712852        2.6460801807570951        0.0000026460801808 
9 1       10.5843207230283802        0.0000000000000000        0.0000000000000000 
10 1       10.5843207230283802        2.6460801807570951        2.6460828268372758 
11 1       13.2304009037854762        0.0000000000000000        2.6460801807570951 
12 1       13.2304009037854762        2.6460801807570951        0.0000026460801808 
13 1       15.8764810845425703        0.0000000000000000        0.0000000000000000 
14 1       15.8764810845425703        2.6460801807570951        2.6460828268372758 
15 1       18.5225612652996645        0.0000000000000000        2.6460801807570951 
16 1       18.5225612652996645        2.6460801807570951        0.0000026460801808 
17 1       21.1686414460567605        0.0000000000000000        0.0000000000000000 
18 1       21.1686414460567605        2.6460801807570951        2.6460828268372758 
19 1       23.8147216268138564        0.0000000000000000        2.6460801807570951 
20 1       23.8147216268138564        2.6460801807570951        0.0000026460801808 
21 1       26.4608018075709523        0.0000000000000000        0.0000000000000000 
22 1       26.4608018075709523        2.6460801807570951        2.6460828268372758 
23 1       29.1068819883280447        0.0000000000000000        2.6460801807570951 
24 1       29.1068819883280447        2.6460801807570951        0.0000026460801808 
25 1       31.7529621690851407        0.0000000000000000        0.0000000000000000 
26 1       31.7529621690851407        2.6460801807570951        2.6460828268372758 
27 1       34.3990423498422331        0.0000000000000000        2.6460801807570951 
28 1       34.3990423498422331        2.6460801807570951        0.0000026460801808 
29 1       37.0451225305993290        0.0000000000000000        0.0000000000000000 
30 1       37.0451225305993290        2.6460801807570951        2.6460828268372758 
31 1       39.6912027113564250        0.0000000000000000        2.6460801807570951 
32 1       39.6912027113564250        2.6460801807570951        0.0000026460801808 
33 1       42.3372828921135209        0.0000000000000000        0.0000000000000000 
34 1       42.3372828921135209        2.6460801807570951        2.6460828268372758 
35 1       44.9833630728706169        0.0000000000000000        2.6460801807570951 
36 1       44.9833630728706169        2.6460801807570951        0.0000026460801808 
37 1       47.6294432536277128        0.0000000000000000        0.0000000000000000 
38 1       47.6294432536277128        2.6460801807570951        2.6460828268372758 
39 1       50.2755234343848088        0.0000000000000000        2.6460801807570951 
40 1       50.2755234343848088        2.6460801807570951        0.0000026460801808 
41 1        0.0000000000000000        5.2921603615141901        0.0000052921603615 
42 1        0.0000000000000000        7.9382405422712852        2.6460881189976373 
43 1        2.6460801807570951        5.2921603615141901        2.6460854729174565 
44 1        2.6460801807570951        7.9382405422712852        0.0000079382405423 
45 1        5.2921603615141901        5.2921603615141901        0.0000052921603615 
46 1        5.2921603615141901        7.9382405422712852        2.6460881189976373 
47 1        7.9382405422712852        5.2921603615141901        2.6460854729174565 
48 1        7.9382405422712852        7.9382405422712852        0.0000079382405423 
49 1       10.5843207230283802        5.2921603615141901        0.0000052921603615 
50 1       10.5843207230283802        7.9382405422712852        2.6460881189976373 
51 1       13.2304009037854762        5.2921603615141901        2.6460854729174565 
52 1       13.2304009037854762        7.9382405422712852        0.0000079382405423 
53 1       15.8764810845425703        5.2921603615141901        0.0000052921603615 
54 1       15.8764810845425703        7.9382405422712852        2.6460881189976373 
55 1       18.5225612652996645        5.2921603615141901        2.6460854729174565 
56 1       18.5225612652996645        7.9382405422712852        0.0000079382405423 
57 1       21.1686414460567605        5.2921603615141901        0.0000052921603615 
58 1       21.1686414460567605        7.9382405422712852        2.6460881189976373 
59 1       23.8147216268138564        5.2921603615141901        2.6460854729174565 
60 1       23.8147216268138564        7.9382405422712852        0.0000079382405423 
61 1       26.4608018075709523        5.2921603615141901        0.0000052921603615 
62 1       26.4608018075709523        7.9382405422712852        2.6460881189976373 
63 1       29.1068819883280447        5.2921603615141901        2.6460854729174565 
64 1       29.1068819883280447        7.9382405422712852        0.0000079382405423 
65 1       31.7529621690851407        5.2921603615141901        0.0000052921603615 
66 1       31.7529621690851407        7.9382405422712852        2.6460881189976373 
67 1       34.3990423498422331        5.2921603615141901        2.6460854729174565 
68 1       34.3990423498422331        7.9382405422712852        0.0000079382405423 
69 1       37.0451225305993290        5.2921603615141901        0.0000052921603615 
70 1       37.0451225305993290        7.9382405422712852        2.6460881189976373 
71 1       39.6912027113564250        5.2921603615141901        2.6460854729174565 
72 1       39.6912027113564250        7.9382405422712852        0.0000079382405423 
73 1       42.3372828921135209        5.2921603615141901        0.0000052921603615 
74 1       42.3372828921135209        7.9382405422712852        2.6460881189976373 
75 1       44.9833630728706169        5.2921603615141901        2.6460854729174565 
76 1       44.9833630728706169        7.9382405422712852        0.0000079382405423 
77 1       47.6294432536277128        5.2921603615141901        0.0000052921603615 
78 1       47.6294432536277128        7.9382405422712852        2.6460881189976373 
79 1       50.2755234343848088        5.2921603615141901        2.6460854729174565 
80 1       50.2755234343848088        7.9382405422712852        0.0000079382405423 
81 1        0.0000000000000000       10.5843207230283802        0.0000105843207230 
82 1        0.0000000000000000       13.2304009037854762        2.6460934111579988 
83 1        2.6460801807570951       10.5843207230283802        2.6460907650778180 
84 1        2.6460801807570951       13.2304009037854762        0.0000132304009038 
85 1        5.2921603615141901       10.5843207230283802        0.0000105843207230 
86 1        5.2921603615141901       13.2304009037854762        2.6460934111579988 
87 1        7.9382405422712852       10.5843207230283802        2.6460907650778180 
88 1        7.9382405422712852       13.2304009037854762        0.0000132304009038 
89 1       10.5843207230283802       10.5843207230283802        0.0000105843207230 
90 1       10.5843207230283802       13.2304009037854762        2.6460934111579988 
91 1       13.2304009037854762       10.5843207230283802        2.6460907650778180 
92 1       13.2304009037854762       13.2304009037854762        0.0000132304009038 
93 1       15.8764810845425703       10.5843207230283802        0.0000105843207230 
94 1       15.8764810845425703       13.2304009037854762        2.6460934111579988 
95 1       18.5225612652996645       10.5843207230283802        2.6460907650778180 
96 1       18.5225612652996645       13.2304009037854762        0.0000132304009038 
97 1       21.1686414460567605       10.5843207230283802        0.0000105843207230 
98 1       21.1686414460567605       13.2304009037854762        2.6460934111579988 
99 1       23.8147216268138564       10.5843207230283802        2.6460907650778180 
100 1       23.8147216268138564       13.2304009037854762        0.0000132304009038 
101 1       26.4608018075709523       10.5843207230283802        0.0000105843207230 
102 1       26.4608018075709523       13.2304009037854762        2.6460934111579988 
103 1       29.1068819883280447       10.5843207230283802        2.6460907650778180 
104 1       29.1068819883280447       13.2304009037854762        0.0000132304009038 
105 1       31.7529621690851407       10.5843207230283802        0.0000105843207230 
106 1       31.7529621690851407       13.2304009037854762        2.6460934111579988 
107 1       34.3990423498422331       10.5843207230283802        2.6460907650778180 
108 1       34.3990423498422331       13.2304009037854762        0.0000132304009038 
109 1       37.0451225305993290       10.5843207230283802        0.0000105843207230 
110 1       37.0451225305993290       13.2304009037854762        2.6460934111579988 
111 1       39.6912027113564250       10.5843207230283802        2.6460907650778180 
112 1       39.6912027113564250       13.2304009037854762        0.0000132304009038 
113 1       42.3372828921135209       10.5843207230283802        0.0000105843207230 
114 1       42.3372828921135209       13.2304009037854762        2.6460934111579988 
115 1       44.9833630728706169       10.5843207230283802        2.6460907650778180 
116 1       44.9833630728706169       13.2304009037854762        0.0000132304009038 
117 1       47.6294432536277128       10.5843207230283802        0.0000105843207230 
118 1       47.6294432536277128       13.2304009037854762        2.6460934111579988 
119 1       50.2755234343848088       10.5843207230283802        2.6460907650778180 
120 1       50.2755234343848088       13.2304009037854762        0.0000132304009038 
121 1        0.0000000000000000       15.8764810845425703        0.0000158764810845 
122 1        0.0000000000000000       18.5225612652996645        2.6460987033183603 
123 1        2.6460801807570951       15.8764810845425703        2.6460960572381795 
124 1        2.6460801807570951       18.5225612652996645        0.0000185225612653 
125 1        5.2921603615141901       15.8764810845425703        0.0000158764810845 
126 1        5.2921603615141901       18.5225612652996645        2.6460987033183603 
127 1        7.9382405422712852       15.8764810845425703        2.6460960572381795 
128 1        7.9382405422712852       18.5225612652996645        0.0000185225612653 
129 1       10.5843207230283802       15.8764810845425703        0.0000158764810845 
130 1       10.5843207230283802       18.5225612652996645        2.6460987033183603 
131 1       13.2304009037854762       15.8764810845425703        2.6460960572381795 
132 1       13.2304009037854762       18.5225612652996645        0.0000185225612653 
133 1       15.8764810845425703       15.8764810845425703        0.0000158764810845 
134 1       15.8764810845425703       18.5225612652996645        2.6460987033183603 
135 1       18.5225612652996645       15.8764810845425703        2.6460960572381795 
136 1       18.5225612652996645       18.5225612652996645        0.0000185225612653 
137 1       21.1686414460567605       15.8764810845425703        0.0000158764810845 
138 1       21.1686414460567605       18.5225612652996645        2.6460987033183603 
139 1       23.8147216268138564       15.8764810845425703        2.6460960572381795 
140 1       23.8147216268138564       18.5225612652996645        0.0000185225612653 
141 1       26.4608018075709523       15.8764810845425703        0.0000158764810845 
142 1       26.4608018075709523       18.5225612652996645        2.6460987033183603 
143 1       29.1068819883280447       15.8764810845425703        2.6460960572381795 
144 1       29.1068819883280447       18.5225612652996645        0.0000185225612653 
145 1       31.7529621690851407       15.8764810845425703        0.0000158764810845 
146 1       31.7529621690851407       18.5225612652996645        2.6460987033183603 
147 1       34.3990423498422331       15.8764810845425703        2.6460960572381795 
148 1       34.3990423498422331       18.5225612652996645        0.0000185225612653 
149 1       37.0451225305993290       15.8764810845425703        0.0000158764810845 
150 1       37.0451225305993290       18.5225612652996645        2.6460987033183603 
151 1       39.6912027113564250       15.8764810845425703        2.6460960572381795 
152 1       39.6912027113564250       18.5225612652996645        0.0000185225612653 
153 1       42.3372828921135209       15.8764810845425703        0.0000158764810845 
154 1       42.3372828921135209       18.5225612652996645        2.6460987033183603 
155 1       44.9833630728706169       15.8764810845425703        2.6460960572381795 
156 1       44.9833630728706169       18.5225612652996645        0.0000185225612653 
157 1       47.6294432536277128       15.8764810845425703        0.0000158764810845 
158 1       47.6294432536277128       18.5225612652996645        2.6460987033183603 
159 1       50.2755234343848088       15.8764810845425703        2.6460960572381795 
160 1       50.2755234343848088       18.5225612652996645        0.0000185225612653 
161 1        0.0000000000000000       21.1686414460567605        0.0000211686414461 
162 1        0.0000000000000000       23.8147216268138564        2.6461039954787218 
163 1        2.6460801807570951       21.1686414460567605        2.6461013493985410 
164 1        2.6460801807570951       23.8147216268138564        0.0000238147216268 
165 1        5.2921603615141901       21.1686414460567605        0.0000211686414461 
166 1        5.2921603615141901       23.8147216268138564        2.6461039954787218 
167 1        7.9382405422712852       21.1686414460567605        2.6461013493985410 
168 1        7.9382405422712852       23.8147216268138564        0.0000238147216268 
169 1       10.5843207230283802       21.1686414460567605        0.0000211686414461 
170 1       10.5843207230283802       23.8147216268138564        2.6461039954787218 
171 1       13.2304009037854762       21.1686414460567605        2.6461013493985410 
172 1       13.2304009037854762       23.8147216268138564        0.0000238147216268 
173 1       15.8764810845425703       21.1686414460567605        0.0000211686414461 
174 1       15.8764810845425703       23.8147216268138564        2.6461039954787218 
175 1       18.5225612652996645       21.1686414460567605        2.6461013493985410 
176 1       18.5225612652996645       23.8147216268138564        0.0000238147216268 
177 1       21.1686414460567605       21.1686414460567605        0.0000211686414461 
178 1       21.1686414460567605       23.8147216268138564        2.6461039954787218 
179 1       23.8147216268138564       21.1686414460567605        2.6461013493985410 
180 1       23.8147216268138564       23.8147216268138564        0.0000238147216268 
181 1       26.4608018075709523       21.1686414460567605        0.0000211686414461 
182 1       26.4608018075709523       23.8147216268138564        2.6461039954787218 
183 1       29.1068819883280447       21.1686414460567605        2.6461013493985410 
184 1       29.1068819883280447       23.8147216268138564        0.0000238147216268 
185 1       31.7529621690851407       21.1686414460567605        0.0000211686414461 
186 1       31.7529621690851407       23.8147216268138564        2.6461039954787218 
187 1       34.3990423498422331       21.1686414460567605        2.6461013493985410 
188 1       34.3990423498422331       23.8147216268138564        0.0000238147216268 
189 1       37.0451225305993290       21.1686414460567605        0.0000211686414461 
190 1       37.0451225305993290       23.8147216268138564        2.6461039954787218 
191 1       39.6912027113564250       21.1686414460567605        2.6461013493985410 
192 1       39.6912027113564250       23.8147216268138564        0.0000238147216268 
193 1       42.3372828921135209       21.1686414460567605        0.0000211686414461 
194 1       42.3372828921135209       23.8147216268138564        2.6461039954787218 
195 1       44.9833630728706169       21.1686414460567605        2.6461013493985410 
196 1       44.9833630728706169       23.8147216268138564        0.0000238147216268 
197 1       47.6294432536277128       21.1686414460567605        0.0000211686414461 
198 1       47.6294432536277128       23.8147216268138564        2.6461039954787218 
199 1       50.2755234343848088       21.1686414460567605        2.6461013493985410 
200 1       50.2755234343848088       23.8147216268138564        0.0000238147216268 
201 1        0.0000000000000000       26.4608018075709523        0.0000264608018076 
202 1        0.0000000000000000       29.1068819883280447        2.6461092876390833 
203 1        2.6460801807570951       26.4608018075709523        2.6461066415589025 
204 1        2.6460801807570951       29.1068819883280447        0.0000291068819883 
205 1        5.2921603615141901       26.4608018075709523        0.0000264608018076 
206 1        5.2921603615141901       29.1068819883280447        2.6461092876390833 
207 1        7.9382405422712852       26.4608018075709523        2.6461066415589025 
208 1        7.9382405422712852       29.1068819883280447        0.0000291068819883 
209 1       10.5843207230283802       26.4608018075709523        0.0000264608018076 
210 1       10.5843207230283802       29.1068819883280447        2.6461092876390833 
211 1       13.2304009037854762       26.4608018075709523        2.6461066415589025 
212 1       13.2304009037854762       29.1068819883280447        0.0000291068819883 
213 1       15.8764810845425703       26.4608018075709523        0.0000264608018076 
214 1       15.8764810845425703       29.1068819883280447        2.6461092876390833 
215 1       18.5225612652996645       26.4608018075709523        2.6461066415589025 
216 1       18.5225612652996645       29.1068819883280447        0.0000291068819883 
217 1       21.1686414460567605       26.4608018075709523        0.0000264608018076 
218 1       21.1686414460567605       29.1068819883280447        2.6461092876390833 
219 1       23.8147216268138564       26.4608018075709523        2.6461066415589025 
220 1       23.8147216268138564       29.1068819883280447        0.0000291068819883 
221 1       26.4608018075709523       26.4608018075709523        0.0000264608018076 
222 1       26.4608018075709523       29.1068819883280447        2.6461092876390833 
223 1       29.1068819883280447       26.4608018075709523        2.6461066415589025 
224 1       29.1068819883280447       29.1068819883280447        0.0000291068819883 
225 1       31.7529621690851407       26.4608018075709523        0.0000264608018076 
226 1       31.7529621690851407       29.1068819883280447        2.6461092876390833 
227 1       34.3990423498422331       26.4608018075709523        2.6461066415589025 
228 1       34.3990423498422331       29.1068819883280447        0.0000291068819883 
229 1       37.0451225305993290       26.4608018075709523        0.0000264608018076 
230 1       37.0451225305993290       29.1068819883280447        2.6461092876390833 
231 1       39.6912027113564250       26.4608018075709523        2.6461066415589025 
232 1       39.6912027113564250       29.1068819883280447        0.0000291068819883 
233 1       42.3372828921135209       26.4608018075709523        0.0000264608018076 
234 1       42.3372828921135209       29.1068819883280447        2.6461092876390833 
235 1       44.9833630728706169       26.4608018075709523        2.6461066415589025 
236 1       44.9833630728706169       29.1068819883280447        0.0000291068819883 
237 1       47.6294432536277128       26.4608018075709523        0.0000264608018076 
238 1       47.6294432536277128       29.1068819883280447        2.6461092876390833 
239 1       50.2755234343848088       26.4608018075709523        2.6461066415589025 
240 1       50.2755234343848088       29.1068819883280447        0.0000291068819883 
241 1        0.0000000000000000       31.7529621690851407        0.0000317529621691 
242 1        0.0000000000000000       34.3990423498422331        2.6461145797994448 
243 1        2.6460801807570951       31.7529621690851407        2.6461119337192640 
244 1        2.6460801807570951       34.3990423498422331        0.0000343990423498 
245 1        5.2921603615141901       31.7529621690851407        0.0000317529621691 
246 1        5.2921603615141901       34.3990423498422331        2.6461145797994448 
247 1        7.9382405422712852       31.7529621690851407        2.6461119337192640 
248 1        7.9382405422712852       34.3990423498422331        0.0000343990423498 
249 1       10.5843207230283802       31.7529621690851407        0.0000317529621691 
250 1       10.5843207230283802       34.3990423498422331        2.6461145797994448 
251 1       13.2304009037854762       31.7529621690851407        2.6461119337192640 
252 1       13.2304009037854762       34.3990423498422331        0.0000343990423498 
253 1       15.8764810845425703       31.7529621690851407        0.0000317529621691 
254 1       15.8764810845425703       34.3990423498422331        2.6461145797994448 
255 1       18.5225612652996645       31.7529621690851407        2.6461119337192640 
256 1       18.5225612652996645       34.3990423498422331        0.0000343990423498 
257 1       21.1686414460567605       31.7529621690851407        0.0000317529621691 
258 1       21.1686414460567605       34.3990423498422331        2.6461145797994448 
259 1       23.8147216268138564       31.7529621690851407        2.6461119337192640 
260 1       23.8147216268138564       34.3990423498422331        0.0000343990423498 
261 1       26.4608018075709523       31.7529621690851407        0.0000317529621691 
262 1       26.4608018075709523       34.3990423498422331        2.6461145797994448 
263 1       29.1068819883280447       31.7529621690851407        2.6461119337192640 
264 1       29.1068819883280447       34.3990423498422331        0.0000343990423498 
265 1       31.7529621690851407       31.7529621690851407        0.0000317529621691 
266 1       31.7529621690851407       34.3990423498422331        2.6461145797994448 
267 1       34.3990423498422331       31.7529621690851407        2.6461119337192640 
268 1       34.3990423498422331       34.3990423498422331        0.0000343990423498 
269 1       37.0451225305993290       31.7529621690851407        0.0000317529621691 
270 1       37.0451225305993290       34.3990423498422331        2.6461145797994448 
271 1       39.6912027113564250       31.7529621690851407        2.6461119337192640 
272 1       39.6912027113564250       34.3990423498422331        0.0000343990423498 
273 1       42.3372828921135209       31.7529621690851407        0.0000317529621691 
274 1       42.3372828921135209       34.3990423498422331        2.6461145797994448 
275 1       44.9833630728706169       31.7529621690851407        2.6461119337192640 
276 1       44.9833630728706169       34.3990423498422331        0.0000343990423498 
277 1       47.6294432536277128       31.7529621690851407        0.0000317529621691 
278 1       47.6294432536277128       34.3990423498422331        2.6461145797994448 
279 1       50.2755234343848088       31.7529621690851407        2.6461119337192640 
280 1       50.2755234343848088       34.3990423498422331        0.0000343990423498 
281 1        0.0000000000000000       37.0451225305993290        0.0000370451225306 
282 1        0.0000000000000000       39.6912027113564250        2.6461198719598062 
283 1        2.6460801807570951       37.0451225305993290        2.6461172258796255 
284 1        2.6460801807570951       39.6912027113564250        0.0000396912027114 
285 1        5.2921603615141901       37.0451225305993290        0.0000370451225306 
286 1        5.2921603615141901       39.6912027113564250        2.6461198719598062 
287 1        7.9382405422712852       37.0451225305993290        2.6461172258796255 
288 1        7.9382405422712852       39.6912027113564250        0.0000396912027114 
289 1       10.5843207230283802       37.0451225305993290        0.0000370451225306 
290 1       10.5843207230283802       39.6912027113564250        2.6461198719598062 
291 1       13.2304009037854762       37.0451225305993290        2.6461172258796255 
292 1       13.2304009037854762       39.6912027113564250        0.0000396912027114 
293 1       15.8764810845425703       37.0451225305993290        0.0000370451225306 
294 1       15.8764810845425703       39.6912027113564250        2.6461198719598062 
295 1       18.5225612652996645       37.0451225305993290        2.6461172258796255 
296 1       18.5225612652996645       39.6912027113564250        0.0000396912027114 
297 1       21.1686414460567605       37.0451225305993290        0.0000370451225306 
298 1       21.1686414460567605       39.6912027113564250        2.6461198719598062 
299 1       23.8147216268138564       37.0451225305993290        2.6461172258796255 
300 1       23.8147216268138564       39.6912027113564250        0.0000396912027114 
301 1       26.4608018075709523       37.0451225305993290        0.0000370451225306 
302 1       26.4608018075709523       39.6912027113564250        2.6461198719598062 
303 1       29.1068819883280447       37.0451225305993290        2.6461172258796255 
304 1       29.1068819883280447       39.6912027113564250        0.0000396912027114 
305 1       31.7529621690851407       37.0451225305993290        0.0000370451225306 
306 1       31.7529621690851407       39.6912027113564250        2.6461198719598062 
307 1       34.3990423498422331       37.0451225305993290        2.6461172258796255 
308 1       34.3990423498422331       39.6912027113564250        0.0000396912027114 
309 1       37.0451225305993290       37.0451225305993290        0.0000370451225306 
310 1       37.0451225305993290       39.6912027113564250        2.6461198719598062 
311 1       39.6912027113564250       37.0451225305993290        2.6461172258796255 
312 1       39.6912027113564250       39.6912027113564250        0.0000396912027114 
313 1       42.3372828921135209       37.0451225305993290        0.0000370451225306 
314 1       42.3372828921135209       39.6912027113564250        2.6461198719598062 
315 1       44.9833630728706169       37.0451225305993290        2.6461172258796255 
316 1       44.9833630728706169       39.6912027113564250        0.0000396912027114 
317 1       47.6294432536277128       37.0451225305993290        0.0000370451225306 
318 1       47.6294432536277128       39.6912027113564250        2.6461198719598062 
319 1       50.2755234343848088       37.0451225305993290        2.6461172258796255 
320 1       50.2755234343848088       39.6912027113564250        0.0000396912027114 
321 1        0.0000000000000000       42.3372828921135209        0.0000423372828921 
322 1        0.0000000000000000       44.9833630728706169        2.6461251641201677 
323 1        2.6460801807570951       42.3372828921135209        2.6461225180399870 
324 1        2.6460801807570951       44.9833630728706169        0.0000449833630729 
325 1        5.2921603615141901       42.3372828921135209        0.0000423372828921 
326 1        5.2921603615141901       44.9833630728706169        2.6461251641201677 
327 1        7.9382405422712852       42.3372828921135209        2.6461225180399870 
328 1        7.9382405422712852       44.9833630728706169        0.0000449833630729 
329 1       10.5843207230283802       42.3372828921135209        0.0000423372828921 
330 1       10.5843207230283802       44.9833630728706169        2.6461251641201677 
331 1       13.2304009037854762       42.3372828921135209        2.6461225180399870 
332 1       13.2304009037854762       44.9833630728706169        0.0000449833630729 
333 1       15.8764810845425703       42.3372828921135209        0.0000423372828921 
334 1       15.8764810845425703       44.9833630728706169        2.6461251641201677 
335 1       18.5225612652996645       42.3372828921135209        2.6461225180399870 
336 1       18.5225612652996645       44.9833630728706169        0.0000449833630729 
337 1       21.1686414460567605       42.3372828921135209        0.0000423372828921 
338 1       21.1686414460567605       44.9833630728706169        2.6461251641201677 
339 1       23.8147216268138564       42.3372828921135209        2.6461225180399870 
340 1       23.8147216268138564       44.9833630728706169        0.0000449833630729 
341 1       26.4608018075709523       42.3372828921135209        0.0000423372828921 
342 1       26.4608018075709523       44.9833630728706169        2.6461251641201677 
343 1       29.1068819883280447       42.3372828921135209        2.6461225180399870 
344 1       29.1068819883280447       44.9833630728706169        0.0000449833630729 
345 1       31.7529621690851407       42.3372828921135209        0.0000423372828921 
346 1       31.7529621690851407       44.9833630728706169        2.6461251641201677 
347 1       34.3990423498422331       42.3372828921135209        2.6461225180399870 
348 1       34.3990423498422331       44.9833630728706169        0.0000449833630729 
349 1       37.0451225305993290       42.3372828921135209        0.0000423372828921 
350 1       37.0451225305993290       44.9833630728706169        2.6461251641201677 
351 1       39.6912027113564250       42.3372828921135209        2.6461225180399870 