ITEM: TIMESTEP
1
ITEM: NUMBER OF ATOMS
8000
ITEM: BOX BOUNDS pp pp pp
0.0000000000000000e+00 5.4309497773647308e+01
0.0000000000000000e+00 5.4852592751383781e+01
0.0000000000000000e+00 5.4309497773647308e+01
ITEM: ATOMS id type x y z v_p1 v_p2 v_p3 v_p4 v_p5 v_p6
1 1        0.0000000000000000        0.0000000000000000        0.0000000000000000       -0.0000000000000000       -0.0000000000000000       -0.0000000000000000       -0.0000000000000000       -0.0000000000000000       -0.0000000000000000
2 1        0.0000000000000000        2.7426296375691890        2.7154748886823654       -0.0000000000000000       -0.0000000000000000       -0.0000000000000000       -0.0000000000000000       -0.0000000000000000       -0.0000000000000000
3 1        2.7154748886823654        0.0000000000000000        2.7154748886823654       -0.0000000000000000       -0.0000000000000000       -0.0000000000000000       -0.0000000000000000       -0.0000000000000000       -0.0000000000000000
4 1        2.7154748886823654        2.7426296375691890        0.0000000000000000       -0.0000000000000000       -0.0000000000000000       -0.0000000000000000       -0.0000000000000000       -0.0000000000000000       -0.0000000000000000
5 1        1.3577374443411827        1.3713148187845945        1.3577374443411827       -0.0000000000000000       -0.0000000000000000       -0.0000000000000000       -0.0000000000000000       -0.0000000000000000       -0.0000000000000000
6 1        1.3577374443411827        4.1139444563537833        4.0732123330235481       -0.0000000000000000       -0.0000000000000000       -0.0000000000000000       -0.0000000000000000       -0.0000000000000000       -0.0000000000000000
7 1        4.0732123330235481        1.3713148187845945        4.0732123330235481       -0.0000000000000000       -0.0000000000000000       -0.0000000000000000       -0.0000000000000000       -0.0000000000000000       -0.0000000000000000
8 1        4.0732123330235481        4.1139444563537833        1.3577374443411827       -0.0000000000000000       -0.0000000000000000       -0.0000000000000000       -0.0000000000000000       -0.0000000000000000       -0.0000000000000000
9 1        5.4309497773647308        0.0000000000000000        0.0000000000000000       -0.0000000000000000       -0.0000000000000000       -0.0000000000000000       -0.0000000000000000       -0.0000000000000000       -0.0000000000000000
10 1        5.4309497773647308        2.7426296375691890        2.7154748886823654       -0.0000000000000000       -0.0000000000000000       -0.0000000000000000       -0.0000000000000000       -0.0000000000000000       -0.0000000000000000
11 1        8.1464246660470963        0.0000000000000000        2.7154748886823654       -0.0000000000000000       -0.0000000000000000       -0.0000000000000000       -0.0000000000000000       -0.0000000000000000       -0.0000000000000000
12 1        8.1464246660470963        2.7426296375691890        0.0000000000000000       -0.0000000000000000       -0.0000000000000000       -0.0000000000000000       -0.0000000000000000       -0.0000000000000000       -0.0000000000000000
13 1        6.7886872217059135        1.3713148187845945        1.3577374443411827       -0.0000000000000000       -0.0000000000000000       -0.0000000000000000       -0.0000000000000000       -0.0000000000000000       -0.0000000000000000
14 1        6.7886872217059135        4.1139444563537833        4.0732123330235481       -0.0000000000000000       -0.0000000000000000       -0.0000000000000000       -0.0000000000000000       -0.0000000000000000       -0.0000000000000000
15 1        9.5041621103882790        1.3713148187845945        4.0732123330235481       -0.0000000000000000       -0.0000000000000000       -0.0000000000000000       -0.0000000000000000       -0.0000000000000000       -0.0000000000000000
16 1        9.5041621103882790        4.1139444563537833        1.3577374443411827       -0.0000000000000000       -0.0000000000000000       -0.0000000000000000       -0.0000000000000000       -0.0000000000000000       -0.0000000000000000
17 1       10.8618995547294617        0.0000000000000000        0.0000000000000000       -0.0000000000000000       -0.0000000000000000       -0.0000000000000000       -0.0000000000000000       -0.0000000000000000       -0.0000000000000000
18 1       10.8618995547294617        2.7426296375691890        2.7154748886823654       -0.0000000000000000       -0.0000000000000000       -0.0000000000000000       -0.0000000000000000       -0.0000000000000000       -0.0000000000000000
19 1       13.5773744434118271        0.0000000000000000        2.7154748886823654       -0.0000000000000000       -0.0000000000000000       -0.0000000000000000       -0.0000000000000000       -0.0000000000000000       -0.0000000000000000
20 1       13.5773744434118271        2.7426296375691890        0.0000000000000000       -0.0000000000000000       -0.0000000000000000       -0.0000000000000000       -0.0000000000000000       -0.0000000000000000       -0.0000000000000000
21 1       12.2196369990706444        1.3713148187845945        1.3577374443411827       -0.0000000000000000       -0.0000000000000000       -0.0000000000000000       -0.0000000000000000       -0.0000000000000000       -0.0000000000000000
22 1       12.2196369990706444        4.1139444563537833        4.0732123330235481       -0.0000000000000000       -0.0000000000000000       -0.0000000000000000       -0.0000000000000000       -0.0000000000000000       -0.0000000000000000
23 1       14.9351118877530098        1.3713148187845945        4.0732123330235481       -0.0000000000000000       -0.0000000000000000       -0.0000000000000000       -0.0000000000000000       -0.0000000000000000       -0.0000000000000000
24 1       14.9351118877530098        4.1139444563537833        1.3577374443411827       -0.0000000000000000       -0.0000000000000000       -0.0000000000000000       -0.0000000000000000       -0.0000000000000000       -0.0000000000000000
25 1       16.2928493320941925        0.0000000000000000        0.0000000000000000       -0.0000000000000000       -0.0000000000000000       -0.0000000000000000       -0.0000000000000000       -0.0000000000000000       -0.0000000000000000
26 1       16.2928493320941925        2.7426296375691890        2.7154748886823654       -0.0000000000000000       -0.0000000000000000       -0.0000000000000000       -0.0000000000000000       -0.0000000000000000       -0.0000000000000000
27 1       19.0083242207765579        0.0000000000000000        2.7154748886823654       -0.0000000000000000       -0.0000000000000000       -0.0000000000000000       -0.0000000000000000       -0.0000000000000000       -0.0000000000000000
28 1       19.0083242207765579        2.7426296375691890        0.0000000000000000       -0.0000000000000000       -0.0000000000000000       -0.0000000000000000       -0.0000000000000000       -0.0000000000000000       -0.0000000000000000
29 1       17.6505867764353752        1.3713148187845945        1.3577374443411827       -0.0000000000000000       -0.0000000000000000       -0.0000000000000000       -0.0000000000000000       -0.0000000000000000       -0.0000000000000000
30 1       17.6505867764353752        4.1139444563537833        4.0732123330235481       -0.0000000000000000       -0.0000000000000000       -0.0000000000000000       -0.0000000000000000       -0.0000000000000000       -0.0000000000000000
31 1       20.3660616651177406        1.3713148187845945        4.0732123330235481       -0.0000000000000000       -0.0000000000000000       -0.0000000000000000       -0.0000000000000000       -0.0000000000000000       -0.0000000000000000
32 1       20.3660616651177406        4.1139444563537833        1.3577374443411827       -0.0000000000000000       -0.0000000000000000       -0.0000000000000000       -0.0000000000000000       -0.0000000000000000       -0.0000000000000000
33 1       21.7237991094589233        0.0000000000000000        0.0000000000000000       -0.0000000000000000       -0.0000000000000000       -0.0000000000000000       -0.0000000000000000       -0.0000000000000000       -0.0000000000000000
34 1       21.7237991094589233        2.7426296375691890        2.7154748886823654       -0.0000000000000000       -0.0000000000000000       -0.0000000000000000       -0.0000000000000000       -0.0000000000000000       -0.0000000000000000
35 1       24.4392739981412888        0.0000000000000000        2.7154748886823654       -0.0000000000000000       -0.0000000000000000       -0.0000000000000000       -0.0000000000000000       -0.0000000000000000       -0.0000000000000000
36 1       24.4392739981412888        2.7426296375691890        0.0000000000000000       -0.0000000000000000       -0.0000000000000000       -0.0000000000000000       -0.0000000000000000       -0.0000000000000000       -0.0000000000000000
37 1       23.0815365538001060        1.3713148187845945        1.3577374443411827       -0.0000000000000000       -0.0000000000000000       -0.0000000000000000       -0.0000000000000000       -0.0000000000000000       -0.0000000000000000
38 1       23.0815365538001060        4.1139444563537833        4.0732123330235481       -0.0000000000000000       -0.0000000000000000       -0.0000000000000000       -0.0000000000000000       -0.0000000000000000       -0.0000000000000000
39 1       25.7970114424824715        1.3713148187845945        4.0732123330235481       -0.0000000000000000       -0.0000000000000000       -0.0000000000000000       -0.0000000000000000       -0.0000000000000000       -0.0000000000000000
40 1       25.7970114424824715        4.1139444563537833        1.3577374443411827       -0.0000000000000000       -0.0000000000000000       -0.0000000000000000       -0.0000000000000000       -0.0000000000000000       -0.0000000000000000
41 1       27.1547488868236542        0.0000000000000000        0.0000000000000000       -0.0000000000000000       -0.0000000000000000       -0.0000000000000000       -0.0000000000000000       -0.0000000000000000       -0.0000000000000000
42 1       27.1547488868236542        2.7426296375691890        2.7154748886823654       -0.0000000000000000       -0.0000000000000000       -0.0000000000000000       -0.0000000000000000       -0.0000000000000000       -0.0000000000000000
43 1       29.8702237755060196        0.0000000000000000        2.7154748886823654       -0.0000000000000000       -0.0000000000000000       -0.0000000000000000       -0.0000000000000000       -0.0000000000000000       -0.0000000000000000
44 1       29.8702237755060196        2.7426296375691890        0.0000000000000000       -0.0000000000000000       -0.0000000000000000       -0.0000000000000000       -0.0000000000000000       -0.0000000000000000       -0.0000000000000000
45 1       28.5124863311648369        1.3713148187845945        1.3577374443411827       -0.0000000000000000       -0.0000000000000000       -0.0000000000000000       -0.0000000000000000       -0.0000000000000000       -0.0000000000000000
46 1       28.5124863311648369        4.1139444563537833        4.0732123330235481       -0.0000000000000000       -0.0000000000000000       -0.0000000000000000       -0.0000000000000000       -0.0000000000000000       -0.0000000000000000
47 1       31.2279612198472023        1.3713148187845945        4.0732123330235481       -0.0000000000000000       -0.0000000000000000       -0.0000000000000000       -0.0000000000000000       -0.0000000000000000       -0.0000000000000000
48 1       31.2279612198472023        4.1139444563537833        1.3577374443411827       -0.0000000000000000       -0.0000000000000000       -0.0000000000000000       -0.0000000000000000       -0.0000000000000000       -0.0000000000000000
49 1       32.5856986641883850        0.0000000000000000        0.0000000000000000       -0.0000000000000000       -0.0000000000000000       -0.0000000000000000       -0.0000000000000000       -0.0000000000000000       -0.0000000000000000
50 1       32.5856986641883850        2.7426296375691890        2.7154748886823654       -0.0000000000000000       -0.0000000000000000       -0.0000000000000000       -0.0000000000000000       -0.0000000000000000       -0.0000000000000000
51 1       35.3011735528707504        0.0000000000000000        2.7154748886823654       -0.0000000000000000       -0.0000000000000000       -0.0000000000000000       -0.0000000000000000       -0.0000000000000000       -0.0000000000000000
52 1       35.3011735528707504        2.7426296375691890        0.0000000000000000       -0.0000000000000000       -0.0000000000000000       -0.0000000000000000       -0.0000000000000000       -0.0000000000000000       -0.0000000000000000
53 1       33.9434361085295677        1.3713148187845945        1.3577374443411827       -0.0000000000000000       -0.0000000000000000       -0.0000000000000000       -0.0000000000000000       -0.0000000000000000       -0.0000000000000000
54 1       33.9434361085295677        4.1139444563537833        4.0732123330235481       -0.0000000000000000       -0.0000000000000000       -0.0000000000000000       -0.0000000000000000       -0.0000000000000000       -0.0000000000000000
55 1       36.6589109972119331        1.3713148187845945        4.0732123330235481       -0.0000000000000000       -0.0000000000000000       -0.0000000000000000       -0.0000000000000000       -0.0000000000000000       -0.0000000000000000
56 1       36.6589109972119331        4.1139444563537833        1.3577374443411827       -0.0000000000000000       -0.0000000000000000       -0.0000000000000000       -0.0000000000000000       -0.0000000000000000       -0.0000000000000000
57 1       38.0166484415531158        0.0000000000000000        0.0000000000000000       -0.0000000000000000       -0.0000000000000000       -0.0000000000000000       -0.0000000000000000       -0.0000000000000000       -0.0000000000000000
58 1       38.0166484415531158        2.7426296375691890        2.7154748886823654       -0.0000000000000000       -0.0000000000000000       -0.0000000000000000       -0.0000000000000000       -0.0000000000000000       -0.0000000000000000
59 1       40.7321233302354813        0.0000000000000000        2.7154748886823654       -0.0000000000000000       -0.0000000000000000       -0.0000000000000000       -0.0000000000000000       -0.0000000000000000       -0.0000000000000000
60 1       40.7321233302354813        2.7426296375691890        0.0000000000000000       -0.0000000000000000       -0.0000000000000000       -0.0000000000000000       -0.0000000000000000       -0.0000000000000000       -0.0000000000000000
61 1       39.3743858858942986        1.3713148187845945        1.3577374443411827       -0.0000000000000000       -0.0000000000000000       -0.0000000000000000       -0.0000000000000000       -0.0000000000000000       -0.0000000000000000
62 1       39.3743858858942986        4.1139444563537833        4.0732123330235481       -0.0000000000000000       -0.0000000000000000       -0.0000000000000000       -0.0000000000000000       -0.0000000000000000       -0.0000000000000000
63 1       42.0898607745766640        1.3713148187845945        4.0732123330235481       -0.0000000000000000       -0.0000000000000000       -0.0000000000000000       -0.0000000000000000       -0.0000000000000000       -0.0000000000000000
64 1       42.0898607745766640        4.1139444563537833        1.3577374443411827       -0.0000000000000000       -0.0000000000000000       -0.0000000000000000       -0.0000000000000000       -0.0000000000000000       -0.0000000000000000
65 1       43.4475982189178467        0.0000000000000000        0.0000000000000000       -0.0000000000000000       -0.0000000000000000       -0.0000000000000000       -0.0000000000000000       -0.0000000000000000       -0.0000000000000000
66 1       43.4475982189178467        2.7426296375691890        2.7154748886823654       -0.0000000000000000       -0.0000000000000000       -0.0000000000000000       -0.0000000000000000       -0.0000000000000000       -0.0000000000000000
67 1       46.1630731076002121        0.0000000000000000        2.7154748886823654       -0.0000000000000000       -0.0000000000000000       -0.0000000000000000       -0.0000000000000000       -0.0000000000000000       -0.0000000000000000
68 1       46.1630731076002121        2.7426296375691890        0.0000000000000000       -0.0000000000000000       -0.0000000000000000       -0.0000000000000000       -0.0000000000000000       -0.0000000000000000       -0.0000000000000000
69 1       44.8053356632590294        1.3713148187845945        1.3577374443411827       -0.0000000000000000       -0.0000000000000000       -0.0000000000000000       -0.0000000000000000       -0.0000000000000000       -0.0000000000000000
70 1       44.8053356632590294        4.1139444563537833        4.0732123330235481       -0.0000000000000000       -0.0000000000000000       -0.0000000000000000       -0.0000000000000000       -0.0000000000000000       -0.0000000000000000
71 1       47.5208105519413948        1.3713148187845945        4.0732123330235481       -0.0000000000000000       -0.0000000000000000       -0.0000000000000000       -0.0000000000000000       -0.0000000000000000       -0.0000000000000000
72 1       47.5208105519413948        4.1139444563537833        1.3577374443411827       -0.0000000000000000       -0.0000000000000000       -0.0000000000000000       -0.0000000000000000       -0.0000000000000000       -0.0000000000000000
73 1       48.8785479962825775        0.0000000000000000        0.0000000000000000       -0.0000000000000000       -0.0000000000000000       -0.0000000000000000       -0.0000000000000000       -0.0000000000000000       -0.0000000000000000
74 1       48.8785479962825775        2.7426296375691890        2.7154748886823654       -0.0000000000000000       -0.0000000000000000       -0.0000000000000000       -0.0000000000000000       -0.0000000000000000       -0.0000000000000000
75 1       51.5940228849649429        0.0000000000000000        2.7154748886823654       -0.0000000000000000       -0.0000000000000000       -0.0000000000000000       -0.0000000000000000       -0.0000000000000000       -0.0000000000000000
76 1       51.5940228849649429        2.7426296375691890        0.0000000000000000       -0.0000000000000000       -0.0000000000000000       -0.0000000000000000       -0.0000000000000000       -0.0000000000000000       -0.0000000000000000
77 1       50.2362854406237602        1.3713148187845945        1.3577374443411827       -0.0000000000000000       -0.0000000000000000       -0.0000000000000000       -0.0000000000000000       -0.0000000000000000       -0.0000000000000000
78 1       50.2362854406237602        4.1139444563537833        4.0732123330235481       -0.0000000000000000       -0.0000000000000000       -0.0000000000000000       -0.0000000000000000       -0.0000000000000000       -0.0000000000000000
79 1       52.9517603293061256        1.3713148187845945        4.0732123330235481       -0.0000000000000000       -0.0000000000000000       -0.0000000000000000       -0.0000000000000000       -0.0000000000000000       -0.0000000000000000
80 1       52.9517603293061256        4.1139444563537833        1.3577374443411827       -0.0000000000000000       -0.0000000000000000       -0.0000000000000000       -0.0000000000000000       -0.0000000000000000       -0.0000000000000000
81 1        0.0000000000000000        5.4852592751383780        0.0000000000000000       -0.0000000000000000       -0.0000000000000000       -0.0000000000000000       -0.0000000000000000       -0.0000000000000000       -0.0000000000000000
82 1        0.0000000000000000        8.2278889127075665        2.7154748886823654       -0.0000000000000000       -0.0000000000000000       -0.0000000000000000       -0.0000000000000000       -0.0000000000000000       -0.0000000000000000
83 1        2.7154748886823654        5.4852592751383780        2.7154748886823654       -0.0000000000000000       -0.0000000000000000       -0.0000000000000000       -0.0000000000000000       -0.0000000000000000       -0.0000000000000000
84 1        2.7154748886823654        8.2278889127075665        0.0000000000000000       -0.0000000000000000       -0.0000000000000000       -0.0000000000000000       -0.0000000000000000       -0.0000000000000000       -0.0000000000000000
85 1        1.3577374443411827        6.8565740939229727        1.3577374443411827       -0.0000000000000000       -0.0000000000000000       -0.0000000000000000       -0.0000000000000000       -0.0000000000000000       -0.0000000000000000
86 1        1.3577374443411827        9.5992037314921621        4.0732123330235481       -0.0000000000000000       -0.0000000000000000       -0.0000000000000000       -0.0000000000000000       -0.0000000000000000       -0.0000000000000000
87 1        4.0732123330235481        6.8565740939229727        4.0732123330235481       -0.0000000000000000       -0.0000000000000000       -0.0000000000000000       -0.0000000000000000       -0.0000000000000000       -0.0000000000000000
88 1        4.0732123330235481        9.5992037314921621        1.3577374443411827       -0.0000000000000000       -0.0000000000000000       -0.0000000000000000       -0.0000000000000000       -0.0000000000000000       -0.0000000000000000
89 1        5.4309497773647308        5.4852592751383780        0.0000000000000000       -0.0000000000000000       -0.0000000000000000       -0.0000000000000000       -0.0000000000000000       -0.0000000000000000       -0.0000000000000000
90 1        5.4309497773647308        8.2278889127075665        2.7154748886823654       -0.0000000000000000       -0.0000000000000000       -0.0000000000000000       -0.0000000000000000       -0.0000000000000000       -0.0000000000000000
91 1        8.1464246660470963        5.4852592751383780        2.7154748886823654       -0.0000000000000000       -0.0000000000000000       -0.0000000000000000       -0.0000000000000000       -0.0000000000000000       -0.0000000000000000
92 1        8.1464246660470963        8.2278889127075665        0.0000000000000000       -0.0000000000000000       -0.0000000000000000       -0.0000000000000000       -0.0000000000000000       -0.0000000000000000       -0.0000000000000000
93 1        6.7886872217059135        6.8565740939229727        1.3577374443411827       -0.0000000000000000       -0.0000000000000000       -0.0000000000000000       -0.0000000000000000       -0.0000000000000000       -0.0000000000000000
94 1        6.7886872217059135        9.5992037314921621        4.0732123330235481       -0.0000000000000000       -0.0000000000000000       -0.0000000000000000       -0.0000000000000000       -0.0000000000000000       -0.0000000000000000
95 1        9.5041621103882790        6.8565740939229727        4.0732123330235481       -0.0000000000000000       -0.0000000000000000       -0.0000000000000000       -0.0000000000000000       -0.0000000000000000       -0.0000000000000000
96 1        9.5041621103882790        9.5992037314921621        1.3577374443411827       -0.0000000000000000       -0.0000000000000000       -0.0000000000000000       -0.0000000000000000       -0.0000000000000000       -0.0000000000000000
97 1       10.8618995547294617        5.4852592751383780        0.0000000000000000       -0.0000000000000000       -0.0000000000000000       -0.0000000000000000       -0.0000000000000000       -0.0000000000000000       -0.0000000000000000
98 1       10.8618995547294617        8.2278889127075665        2.7154748886823654       -0.0000000000000000       -0.0000000000000000       -0.0000000000000000       -0.0000000000000000       -0.0000000000000000       -0.0000000000000000
99 1       13.5773744434118271        5.4852592751383780        2.7154748886823654       -0.0000000000000000       -0.0000000000000000       -0.0000000000000000       -0.0000000000000000       -0.0000000000000000       -0.0000000000000000
100 1       13.5773744434118271        8.2278889127075665        0.0000000000000000       -0.0000000000000000       -0.0000000000000000       -0.0000000000000000       -0.0000000000000000       -0.0000000000000000       -0.0000000000000000
101 1       12.2196369990706444        6.8565740939229727        1.3577374443411827       -0.0000000000000000       -0.0000000000000000       -0.0000000000000000       -0.0000000000000000       -0.0000000000000000       -0.0000000000000000
102 1       12.2196369990706444        9.5992037314921621        4.0732123330235481       -0.0000000000000000       -0.0000000000000000       -0.0000000000000000       -0.0000000000000000       -0.0000000000000000       -0.0000000000000000
103 1       14.9351118877530098        6.8565740939229727        4.0732123330235481       -0.0000000000000000       -0.0000000000000000       -0.0000000000000000       -0.0000000000000000       -0.0000000000000000       -0.0000000000000000
104 1       14.9351118877530098        9.5992037314921621        1.3577374443411827       -0.0000000000000000       -0.0000000000000000       -0.0000000000000000       -0.0000000000000000       -0.0000000000000000       -0.0000000000000000
105 1       16.2928493320941925        5.4852592751383780        0.0000000000000000       -0.0000000000000000       -0.0000000000000000       -0.0000000000000000       -0.0000000000000000       -0.0000000000000000       -0.0000000000000000
106 1       16.2928493320941925        8.2278889127075665        2.7154748886823654       -0.0000000000000000       -0.0000000000000000       -0.0000000000000000       -0.0000000000000000       -0.0000000000000000       -0.0000000000000000
107 1       19.0083242207765579        5.4852592751383780        2.7154748886823654       -0.0000000000000000       -0.0000000000000000       -0.0000000000000000       -0.0000000000000000       -0.0000000000000000       -0.0000000000000000
108 1       19.0083242207765579        8.2278889127075665        0.0000000000000000       -0.0000000000000000       -0.0000000000000000       -0.0000000000000000       -0.0000000000000000       -0.0000000000000000       -0.0000000000000000
109 1       17.6505867764353752        6.8565740939229727        1.3577374443411827       -0.0000000000000000       -0.0000000000000000       -0.0000000000000000       -0.0000000000000000       -0.0000000000000000       -0.0000000000000000
110 1       17.6505867764353752        9.5992037314921621        4.0732123330235481       -0.0000000000000000       -0.0000000000000000       -0.0000000000000000       -0.0000000000000000       -0.0000000000000000       -0.0000000000000000
111 1       20.3660616651177406        6.8565740939229727        4.0732123330235481       -0.0000000000000000       -0.0000000000000000       -0.0000000000000000       -0.0000000000000000       -0.0000000000000000       -0.0000000000000000
112 1       20.3660616651177406        9.5992037314921621        1.3577374443411827       -0.0000000000000000       -0.0000000000000000       -0.0000000000000000       -0.0000000000000000       -0.0000000000000000       -0.0000000000000000
113 1       21.7237991094589233        5.4852592751383780        0.0000000000000000       -0.0000000000000000       -0.0000000000000000       -0.0000000000000000       -0.0000000000000000       -0.0000000000000000       -0.0000000000000000
114 1       21.7237991094589233        8.2278889127075665        2.7154748886823654       -0.0000000000000000       -0.0000000000000000       -0.0000000000000000       -0.0000000000000000       -0.0000000000000000       -0.0000000000000000
115 1       24.4392739981412888        5.4852592751383780        2.7154748886823654       -0.0000000000000000       -0.0000000000000000       -0.0000000000000000       -0.0000000000000000       -0.0000000000000000       -0.0000000000000000
116 1       24.4392739981412888        8.2278889127075665        0.0000000000000000       -0.0000000000000000       -0.0000000000000000       -0.0000000000000000       -0.0000000000000000       -0.0000000000000000       -0.0000000000000000
117 1       23.0815365538001060        6.8565740939229727        1.3577374443411827       -0.0000000000000000       -0.0000000000000000       -0.0000000000000000       -0.0000000000000000       -0.0000000000000000       -0.0000000000000000
118 1       23.0815365538001060        9.5992037314921621        4.0732123330235481       -0.0000000000000000       -0.0000000000000000       -0.0000000000000000       -0.0000000000000000       -0.0000000000000000       -0.0000000000000000
119 1       25.7970114424824715        6.8565740939229727        4.0732123330235481       -0.0000000000000000       -0.0000000000000000       -0.0000000000000000       -0.0000000000000000       -0.0000000000000000       -0.0000000000000000
120 1       25.7970114424824715        9.5992037314921621        1.3577374443411827       -0.0000000000000000       -0.0000000000000000       -0.0000000000000000       -0.0000000000000000       -0.0000000000000000       -0.0000000000000000
121 1       27.1547488868236542        5.4852592751383780        0.0000000000000000       -0.0000000000000000       -0.0000000000000000       -0.0000000000000000       -0.0000000000000000       -0.0000000000000000       -0.0000000000000000
122 1       27.1547488868236542        8.2278889127075665        2.7154748886823654       -0.0000000000000000       -0.0000000000000000       -0.0000000000000000       -0.0000000000000000       -0.0000000000000000       -0.0000000000000000
123 1       29.8702237755060196        5.4852592751383780        2.7154748886823654       -0.0000000000000000       -0.0000000000000000       -0.0000000000000000       -0.0000000000000000       -0.0000000000000000       -0.0000000000000000
124 1       29.8702237755060196        8.2278889127075665        0.0000000000000000       -0.0000000000000000       -0.0000000000000000       -0.0000000000000000       -0.0000000000000000       -0.0000000000000000       -0.0000000000000000