# Bcc oriented X=[-111] Y=[101] Z=[12-1].

24480 atoms
3 atom types

-95.18727654954 95.18727654954 xlo xhi
-45.71769755913 45.71769755913 ylo yhi
-11.877806246622 11.877806246622 zlo zhi
0 0 0 xy xz yz

Masses

1 92.908 #Nb
2 180.95 #Ta
3 50.941 #V

Atoms # atomic

1 1 -91.4544324276563 -43.45127380173122 -10.626659275707672 0 0 0
2 1 -82.15719330493295 -45.713337469642475 -9.278733832720782 0 0 0
3 1 -82.12201984745415 -43.43603837589653 -5.3169339819775345 0 0 0
4 1 -78.45349522480707 -43.392034715118776 -7.93134333305885 0 0 0
23697 3 -90.53729062609655 -36.68046285350496 6.627609864754849 0 0 0
23698 3 -70.99804827255898 -34.2543108967342 10.601287917567355 0 0 0
7 1 -70.02956568010323 -45.71239610229605 11.843207338796653 0 0 -1
8 1 -70.03144539552949 -43.40626799617844 -7.89800265023954 0 0 0
9 1 -68.12867235148667 -43.44293434000497 -5.239376501705421 0 0 0
10 1 -67.17790081525605 -43.39969619018215 -7.893814022390107 0 0 0
23675 3 -34.53200475357441 -38.88125312692274 10.562247840550636 0 0 0
12 1 -55.938756986815285 -43.49195853237429 -7.856886740663408 0 0 0
13 1 -52.26364238087786 -43.47821460191517 -10.501307031065126 0 0 0
23674 3 -36.40122774012038 -38.908566351853516 7.920298488670877 0 0 0
15 1 -43.859769654998416 -43.45606475490159 -10.55981472732005 0 0 0
23673 3 -39.169809398116264 -38.90003279967214 7.94025197673626 0 0 0
17 1 -42.89925815425146 -43.49840630681728 -5.245215981064664 0 0 0
18 1 -42.01653279962165 -43.44837474569639 -7.912190851225734 0 0 0
19 1 -40.122273975776054 -43.44790941253861 -5.220157752597732 0 0 0
20 1 -39.20735926106715 -45.702532412727614 11.809366428603632 0 0 -1
21 1 -37.33965140083279 -45.714705003360905 -9.260783432299382 0 0 0
22 1 -36.44578457981346 -45.71404267597888 11.846329436283149 0 0 -1
23 1 -35.4295206820224 -45.66506817112197 -6.585556873610804 0 0 0
24 1 -35.493292400013196 -43.42296802271355 -10.564852771386725 0 0 0
56 1 -95.1781909840236 -38.87637666276828 -7.89552710101014 0 0 0
57 1 -86.83070352265621 -41.18696536438661 11.801689292059432 0 0 -1
58 1 -81.20634979721547 -41.129053026443344 -11.844854438817107 0 0 0
59 1 -66.17102636887614 -38.84169607292317 -10.563006287476513 0 0 0
60 1 -58.80718670231919 -41.18029557120541 -11.876733561295232 0 0 0
61 1 -53.17200600476899 -41.118395725789746 -11.862176458143766 0 0 0
62 1 -51.33550611080495 -41.13615458168064 -9.19092983187043 0 0 0
63 1 -44.78033839419758 -41.18806567263345 -11.868210184001198 0 0 0
64 1 -43.91499288143696 -41.18717427717555 -6.586823327780316 0 0 0
65 1 -43.87778494391587 -38.891775049808274 -10.571203265130649 0 0 0
66 1 -41.9706264031027 -41.18448223758665 11.853098623801966 0 0 -1
67 1 -38.22319206838751 -38.81138709140344 -10.541683572339869 0 0 0
68 1 -35.44191728146747 -41.12051402465011 -6.605407307942946 0 0 0
101 1 -93.29070599567828 -36.587258536556796 -9.244705861472395 0 0 0
102 1 -92.41955161492783 -36.67430261101488 11.870081495045483 0 0 -1
103 1 -82.12465789992626 -36.567323625462656 -9.215870662410067 0 0 0
104 1 -75.61305565089448 -36.5465916754457 -11.81597696863088 0 0 0
105 1 -75.64102155841968 -34.25086137790814 -7.987746248404708 0 0 0
106 1 -67.23976616775577 -36.60718974495714 -11.856440762183732 0 0 0
107 1 -62.55711840198006 -36.596833852022144 -9.174254704729943 0 0 0
108 1 -61.665171925783724 -34.33702892020645 -7.933848272908604 0 0 0
109 1 -59.732041776919814 -34.388877316588555 -5.277578059160867 0 0 0
110 1 -57.86656760364851 -34.31477201025344 -10.548826188460932 0 0 0
111 1 -50.41601966532555 -36.612662243715334 11.867278767963562 0 0 -1
112 1 -48.487529604423635 -34.35679498763559 -5.305491207590617 0 0 0
113 1 -45.789572682002095 -36.61561968205052 -9.245967956966446 0 0 0
114 1 -42.92340321366893 -34.37294123556241 -5.29298100200086 0 0 0
115 1 -38.22876324076564 -36.57049317381378 -6.656144302274543 0 0 0
116 1 -35.44578892223281 -36.6432795791753 -6.578441773265169 0 0 0
24011 3 -37.3376376122176 -4.5654505900988624 6.56551642266837 0 0 0
145 1 -92.43557309279637 -32.03422082847197 11.861078862795015 0 0 -1
146 1 -85.84475940305187 -32.04772892958699 -6.630566261088482 0 0 0
147 1 -84.9558927323319 -29.71657137466313 -5.33534057903794 0 0 0
148 1 -83.05326904226976 -32.050250599688034 -6.617097845206914 0 0 0
149 1 -83.05362428887557 -29.725914937337112 -10.61604475534179 0 0 0
150 1 -74.77568045672513 -32.02724931882061 -6.64751717427402 0 0 0
151 1 -69.10000038823864 -32.02566817605941 -6.628295726372534 0 0 0
152 1 -69.11090623115959 -29.717567491365713 -10.630262483953688 0 0 0
153 1 -62.538505279673586 -32.04338150261004 -9.222899561039041 0 0 0
154 1 -56.038205656327825 -29.76694099090321 -7.923472250051846 0 0 0
155 1 -54.13900680868294 -32.0221931816267 -9.268096418760473 0 0 0
156 1 -50.37677958589462 -32.0360538469711 -11.845888007300898 0 0 0
157 1 -49.439346605022784 -29.761260514497913 -10.53924105599569 0 0 0
158 1 -46.6337069779229 -32.04503700770038 -6.637339020171332 0 0 0
159 1 -42.92016083153 -32.061506956628115 -9.167732659474884 0 0 0
160 1 -36.395004291930235 -32.0626367238001 -11.855893579803404 0 0 0
161 1 -32.628992509144666 -32.04226678278942 -6.576222497451404 0 0 0
183 1 -92.46296385956877 -27.41691000882171 11.862644066906014 0 0 -1
184 1 -92.46059943740715 -25.155581981035727 -7.979440092198274 0 0 0
185 1 -90.56157381952481 -25.12508908489802 -5.27151777564962 0 0 0
186 1 -89.6430709399645 -25.16584759729713 -7.923099672026508 0 0 0
187 1 -88.64550044704086 -27.46710551107705 -6.608136112713445 0 0 0
188 1 -88.64869801681559 -25.14145548519467 -10.595521636545069 0 0 0
189 1 -86.79906515046673 -25.142397944562354 -7.950781599548309 0 0 0
190 1 -75.62236659450609 -27.488164509637325 -11.850077250424999 0 0 0
191 1 -71.93310587388876 -27.479585021161675 -6.626345018069726 0 0 0
192 1 -70.05649978036476 -27.431064090340776 11.8529924246711 0 0 -1
193 1 -70.01400801880436 -25.119548794120384 -7.907714432998921 0 0 0
194 1 -65.33941867236246 -27.457227329654177 -9.21862380168042 0 0 0
195 1 -65.37595015945972 -25.158521944786592 -5.326641735486819 0 0 0
196 1 -54.10947570404601 -27.48200503667628 -9.262152199849677 0 0 0
197 1 -48.540576643153585 -27.478087525859586 -9.18988068694946 0 0 0
223 1 -87.69358128100433 -22.86357654992045 -9.25772493660166 0 0 0
224 1 -87.72132991131235 -20.541176817004104 -5.3381973695063545 0 0 0
225 1 -75.63110186278539 -20.563028856992602 -7.889781143372247 0 0 0
226 1 -74.6742056387082 -22.849535648753694 -6.6225071157042334 0 0 0
227 1 -71.91235825324478 -22.806986781577876 -6.613536212447294 0 0 0
228 1 -70.92775455719037 -20.551017775299027 -5.331998851044233 0 0 0
229 1 -65.40650237498481 -20.55364592327381 -5.2765366259855755 0 0 0
230 1 -63.48818994607397 -20.581639400282256 -10.556400088453497 0 0 0
231 1 -61.58783214954647 -20.558343606633652 -7.8653093556813 0 0 0
232 1 -56.91818977923679 -22.87048890659244 -9.20461587980367 0 0 0
233 1 -56.880506414674386 -20.564277682052065 -5.206580474905266 0 0 0
234 1 -50.34722620062377 -22.85357070600772 -11.797421233796625 0 0 0
235 1 -34.622281316046994 -22.837994431177282 -9.252573233288302 0 0 0
236 1 -33.6000959159916 -20.588722419606054 -7.9480723224089775 0 0 0
269 1 -89.65152892011251 -16.0011538669984 -7.932126202357516 0 0 0
270 1 -87.76782563366038 -18.31742393141168 -9.263926797613268 0 0 0
271 1 -82.1123472687881 -16.005025468289713 -5.277049972432129 0 0 0
272 1 -77.49769743203058 -16.015331621937808 -10.531093324841057 0 0 0
273 1 -70.94870310851023 -18.308880492971543 -9.163711575338139 0 0 0
274 1 -69.06507996725733 -16.032620070823754 -10.515248165780575 0 0 0
275 1 -55.024738557776395 -15.99155347033821 -10.546381360498806 0 0 0
276 1 -54.16682558091251 -18.22135710020338 -9.220360676823415 0 0 0
277 1 -53.141895025784095 -16.041677490322414 -7.92542017242037 0 0 0
278 1 -52.19987393620295 -18.262281343792207 -6.6040540671362615 0 0 0
279 1 -50.34737274140162 -18.257589739216115 -11.848785717418384 0 0 0
280 1 -49.42540825876815 -16.03931797151238 -10.521940098752806 0 0 0
281 1 -42.93241236666154 -18.31630093439867 -9.190183073490923 0 0 0
282 1 -42.91041725003993 -15.997228751501865 -5.284441078559954 0 0 0
283 1 -41.06229593222017 -16.002902416001813 -10.549805046333809 0 0 0
284 1 -39.18683563981932 -18.319409758173247 11.837714813328393 0 0 -1
285 1 -37.32103397009786 -15.993741834720044 -5.224006473149599 0 0 0
286 1 -35.48038153011148 -15.980362451917092 -10.583931482395059 0 0 0
287 1 -34.56495153442763 -18.298891934119837 -9.228997465456223 0 0 0
288 1 -33.6160308486314 -18.250879710852317 11.828638849644687 0 0 -1
309 1 -86.83238335254426 -11.393439401082652 -7.988933974669723 0 0 0
310 1 -84.03724233233977 -11.387680044996856 -7.914308368904363 0 0 0
311 1 -80.32892090418159 -11.43501086567121 -10.568572700759598 0 0 0
312 1 -79.3759902638012 -13.6949814954678 -9.17289729705534 0 0 0
313 1 -76.58428410939248 -13.76263365805999 -9.254430595832087 0 0 0
314 1 -75.61252510544347 -13.7261366542104 -11.855257001712586 0 0 0
315 1 -74.68238773883701 -13.722262912633667 -6.607621373465785 0 0 0
316 1 -73.74116387721782 -13.757647991891261 -9.183115296200747 0 0 0
317 1 -70.02239728446145 -13.778868262419351 -11.826496344886804 0 0 0
318 1 -63.4723105090287 -13.72549942638478 -6.576176659926028 0 0 0
319 1 -62.54145248800975 -13.712101205331642 -9.213561543827456 0 0 0
320 1 -53.13519720542967 -11.419860604720675 -7.879109691119183 0 0 0
321 1 -48.53624064380958 -11.436893445917207 -5.216555161875488 0 0 0
322 1 -46.64753408819211 -13.754528542455606 -6.577160167193151 0 0 0
323 1 -41.95809126978119 -13.68112612449137 11.857056204422072 0 0 -1
324 1 -41.035965102293176 -11.410895766026712 -10.552061439984701 0 0 0
357 1 -84.02524407378186 -9.125891061042608 11.86477717310239 0 0 -1
358 1 -79.37585456270106 -6.8690907385628535 -5.276057183059321 0 0 0
359 1 -70.92634013199651 -6.860489587546972 -5.340792743810576 0 0 0
360 1 -69.96243274038655 -6.8489924842071375 -7.924615944096145 0 0 0
361 1 -69.0530856009254 -9.08590283443202 -6.6547955926396005 0 0 0
362 1 -64.39304607049837 -9.089710776800736 -11.844392687827877 0 0 0
363 1 -59.737610139150455 -6.83690121356544 -5.249597435657937 0 0 0
364 1 -56.94238269353936 -9.152410240165281 -9.276064776900984 0 0 0
365 1 -55.06639958126979 -9.119192630924587 -6.57217694791487 0 0 0
366 1 -50.353160464321775 -6.868751546005221 -7.907146507891099 0 0 0
367 1 -46.63634513016808 -9.10937799244455 -6.607930857343686 0 0 0
368 1 -41.964294079197245 -9.11827422699858 11.799815425023176 0 0 -1
369 1 -39.17629774361062 -9.103600049088044 11.854786575364969 0 0 -1
401 1 -88.712738316405 -4.492494174161401 -6.633402927826588 0 0 0
402 1 -87.74689759585225 -2.245539735609391 -5.321394325388326 0 0 0
403 1 -83.97704394550567 -2.2511014529087703 -7.947816767625337 0 0 0
404 1 -79.39354645385916 -2.255320805475293 -5.284191398681298 0 0 0
405 1 -62.583622036933306 -4.576565605098182 -9.260288058086802 0 0 0
406 1 -62.56361056489716 -2.2632787249650264 -5.244755367503951 0 0 0
407 1 -60.66301832528423 -2.2906174768132743 -10.560360856718173 0 0 0
408 1 -53.20427454241909 -4.575276016346031 11.85605475091974 0 0 -1
409 1 -52.262624413468174 -2.2652658148350895 -10.568917785646477 0 0 0
410 1 -46.5933748064269 -4.5727188945018895 -6.6256362387085 0 0 0
411 1 -41.029414280256745 -4.5569162326793915 -6.625884865769741 0 0 0
412 1 -40.148859349582004 -2.315785239621647 -5.294045600349582 0 0 0
880 1 -90.58847766128417 -43.37140985122765 2.69220443103503 0 0 0
881 1 -88.73628166406684 -43.47438699032309 -2.5938841417326337 0 0 0
882 1 -81.25338804393928 -43.42418504917098 0.014032275187297216 0 0 0
23672 3 -41.01300156651357 -41.214391857544165 9.243123331724064 0 0 0
884 1 -77.48556772798439 -45.70271194156221 1.3328914762100261 0 0 0
885 1 -75.5712238441972 -45.70564360170673 -4.000622003788534 0 0 0
886 1 -69.09841657513016 -43.441276557275955 -2.628364801741645 0 0 0
887 1 -68.12825847331942 -45.69697334388657 -1.2850033917514132 0 0 0
23671 3 -47.628306791344855 -38.889830682248586 7.9373212877765695 0 0 0
23670 3 -51.26018582777999 -41.17759235001522 6.6408714085393825 0 0 0
23669 3 -54.1315153378309 -38.864271711055345 10.565446837747626 0 0 0
891 1 -42.89065131297644 -43.436272854480286 2.652809024290116 0 0 0
892 1 -39.256599934482715 -45.70671076665796 -3.955367215181975 0 0 0
893 1 -39.1605903970533 -43.40971701457978 0.037704566572386966 0 0 0
928 1 -91.52124860650382 -38.88343567204604 -2.6382996899199753 0 0 0
929 1 -82.18640900628648 -38.93316259440423 2.67576083692572 0 0 0
930 1 -81.29494539428403 -38.932405943014416 -0.007971362869604093 0 0 0
931 1 -79.39872780377677 -38.92757055210385 2.6537601704652314 0 0 0
932 1 -70.94758897000953 -38.91554686436375 2.6528676321185536 0 0 0
933 1 -69.07941832914028 -41.18884656494262 1.3244346775967042 0 0 0
934 1 -57.87482242658386 -41.23416034949354 1.2961706087976985 0 0 0
935 1 -55.988015709757846 -38.92928215346182 -0.024381765450625537 0 0 0
936 1 -52.276129965372796 -38.94419427479286 -2.6412522452301257 0 0 0
937 1 -42.87606492521125 -38.935516722000116 2.66837866344561 0 0 0
938 1 -42.02053757398834 -41.14011342047752 -3.9110833822500384 0 0 0
939 1 -40.13188426088289 -38.93636430474844 2.593058692028615 0 0 0
940 1 -36.368315436242824 -38.96697333668287 -0.003921314382587582 0 0 0
941 1 -35.50485512073626 -38.84384469698624 -2.6486628681681417 0 0 0
24010 3 -38.23166545014157 -2.304125311129937 5.244430410026613 0 0 0
984 1 -94.2781364618095 -36.621861151132755 1.3824583987600825 0 0 0
985 1 -92.41622014133814 -34.333679969038165 -0.0036006677479658578 0 0 0
986 1 -85.97641563140233 -36.652406287118716 1.2900663317015795 0 0 0
987 1 -85.91015974566844 -34.315760350079294 -2.6525068706587103 0 0 0
988 1 -84.00999686169065 -36.5919023178234 -4.013471629975623 0 0 0
989 1 -80.29517326371025 -34.247526432770854 -2.684342282292535 0 0 0
990 1 -69.08339666037202 -36.59377119130133 1.3443297657077107 0 0 0
991 1 -68.14162188027032 -36.616066471013944 -1.3148122337260357 0 0 0
992 1 -67.18529835710724 -36.62995332235778 -3.99666986143626 0 0 0
993 1 -67.20927495556866 -34.280924149437226 0.006678169069049389 0 0 0
994 1 -64.33741454798177 -34.34755568690968 -0.03673460927787353 0 0 0
995 1 -58.81173148374055 -36.615451911863914 -3.9460318620736414 0 0 0
996 1 -51.3336042397014 -34.38281827098399 2.686831929637936 0 0 0
997 1 -41.06862152497155 -36.614643088301506 1.3450129759252043 0 0 0
998 1 -37.30671436023056 -34.334519304989385 2.6692253113842774 0 0 0
999 1 -35.491230934413785 -36.662115105963636 1.2979227162687152 0 0 0
24009 3 -47.553723093207495 -4.549176345229583 3.987628854302926 0 0 0
1039 1 -94.3596245754835 -32.052724388185 1.332448237215793 0 0 0
1040 1 -90.59243185467967 -32.06250405873747 -1.3559664566438752 0 0 0
1041 1 -83.9959258789054 -29.736068768483516 0.02795835138844005 0 0 0
1042 1 -77.5241492336085 -29.725558230392444 -2.7069664911082363 0 0 0
1043 1 -75.62464872086862 -31.997143794376676 -4.06656962549873 0 0 0
1044 1 -74.68076773667121 -31.99938818811032 1.3066056729755697 0 0 0
1045 1 -74.72031290042813 -29.753589258592445 -2.6905407145028697 0 0 0
1046 1 -69.11878048196895 -29.70732101035187 -2.6741390030210805 0 0 0
1047 1 -67.18042381464886 -32.018677606042786 -3.9934358785119732 0 0 0
1048 1 -66.23139470272132 -32.01468200112635 1.3456726474051397 0 0 0
1049 1 -57.889256124052515 -29.78594221852618 -2.6505803298067256 0 0 0
1050 1 -56.93765242079846 -29.736571113041876 2.651595931546753 0 0 0
1051 1 -55.99415571442051 -29.740193228587835 0.021856526462816106 0 0 0
1052 1 -54.129153795574595 -29.771654184706083 2.673675719063116 0 0 0
1053 1 -52.21107046071512 -32.09007963415534 1.3645815666173053 0 0 0
1054 1 -44.76622239508771 -29.729220048499172 0.01827252143737823 0 0 0
1055 1 -41.05180050156925 -32.01787106959958 1.3308445214485918 0 0 0
1056 1 -35.39677693812787 -32.004398069434764 1.3492942233775178 0 0 0
1057 1 -34.4913975855672 -32.057225261135066 -1.2519993465317913 0 0 0
1058 1 -32.60965842033792 -29.760673804848103 -2.602379026936477 0 0 0
24008 3 -48.465644225727324 -2.2796434347286834 10.546511562199093 0 0 0
1087 1 -87.69787976701016 -25.084951644422247 2.6956907724496784 0 0 0
1088 1 -78.4392043508677 -27.503301500121054 -3.991387041271058 0 0 0
1089 1 -78.47758157428028 -25.12078852243689 0.025102220208442105 0 0 0
1090 1 -77.51988080736805 -27.42852675142863 1.3268140682779794 0 0 0
1091 1 -73.75551414711549 -25.139042031845623 2.6483142490941454 0 0 0
1092 1 -72.80804179787438 -27.427246261454272 -4.056403482365029 0 0 0
1093 1 -65.32051865758869 -25.107837974869266 2.709851273457863 0 0 0
1094 1 -61.575540751255765 -25.143836574264455 0.08615666350424789 0 0 0
1095 1 -58.80591833364635 -27.469813185346858 -3.9320352204083564 0 0 0
1096 1 -49.41815938479668 -27.452068124628436 1.3248756544478528 0 0 0
1097 1 -49.440480546764924 -25.09018055537603 -2.705960835446241 0 0 0
1098 1 -47.50735369638986 -27.433669804650933 -3.9670105779500204 0 0 0
1099 1 -39.22010421772121 -25.146437970527607 0.0413296176083886 0 0 0
1100 1 -35.43409892671018 -25.154505687301803 -2.5953601729327005 0 0 0
1101 1 -34.55719455889095 -27.456830838165846 -1.2569392775005674 0 0 0
1140 1 -94.31892647355168 -20.57618480120055 -2.6717479088010467 0 0 0
1141 1 -91.4668643232448 -22.83935066380605 1.351060520719301 0 0 0
1142 1 -90.5168853624332 -22.818193833293446 -1.3537108303948564 0 0 0
1143 1 -89.60026257693526 -22.844382635403623 -3.9731494464695496 0 0 0
1144 1 -89.57447637843221 -20.55785539394555 0.03404643236991056 0 0 0
1145 1 -88.63356317510214 -22.83852941348279 1.3391857888833627 0 0 0
1146 1 -76.52209742425401 -22.82814339690946 -1.3506689994808703 0 0 0
1147 1 -69.99055725566399 -20.49370297135267 0.002983339738404922 0 0 0
1148 1 -69.09768305696748 -22.785141362567288 1.3630667835549648 0 0 0
1149 1 -69.08936313443571 -20.522340801962216 -2.620784339618453 0 0 0
1150 1 -63.45919682166915 -22.824933643214877 1.3775785429953729 0 0 0
1151 1 -62.53339168185627 -22.847717207130582 -1.2722482647263984 0 0 0
1152 1 -61.60408391336718 -22.841127377798667 -3.963789997825427 0 0 0
1153 1 -60.676619775451655 -22.808562067958473 1.353066536221295 0 0 0
1154 1 -50.38022511584733 -20.57018714672224 0.01344696375820753 0 0 0
1155 1 -46.644670012497265 -20.56524777962557 -2.697263530196375 0 0 0
1156 1 -43.82249772667643 -22.807354739488797 1.313640918731032 0 0 0
1157 1 -42.879265864503 -20.554754134678667 2.626055387873892 0 0 0
1158 1 -35.472897399231115 -20.565986343410817 -2.6709529608418254 0 0 0
1180 1 -94.22021351138956 -18.24332944238533 1.3452905951145055 0 0 0
1181 1 -93.35726003152922 -18.268433058876127 -1.305013545040298 0 0 0
1182 1 -91.49786194591121 -15.992718614966268 -2.6675917051457763 0 0 0
1183 1 -86.8468549698237 -16.066361556152398 0.05628665227204266 0 0 0
1184 1 -82.21161783070039 -15.980826003891838 2.632157689401433 0 0 0
1185 1 -81.24256329079898 -16.01229740315132 0.053270607565934824 0 0 0
1186 1 -80.33432321881882 -18.27198699609826 1.297902811782805 0 0 0
1187 1 -72.80226784886757 -16.02261908986836 -0.03143767895446281 0 0 0
1188 1 -69.09001127794457 -18.30130696872957 1.3242861133143435 0 0 0
1189 1 -63.475965124231315 -18.242426798901757 1.3215745702974715 0 0 0
1190 1 -45.6570254047241 -18.25956737333859 -1.2997586251373825 0 0 0
1191 1 -42.874124229509306 -18.219570055060974 -1.338280931416545 0 0 0
1192 1 -36.441679070929126 -18.298431286876344 -3.9128886839740593 0 0 0
1193 1 -32.638515062294886 -15.969910053410189 -2.6320713184935904 0 0 0
1222 1 -81.25975105285812 -11.413994960023437 0.060727113203425276 0 0 0
1223 1 -70.02111938772082 -13.74427510878477 -3.9690741125794027 0 0 0
1224 1 -65.29367268944894 -11.457337099206796 2.621708807191908 0 0 0
1225 1 -60.673884388699726 -11.445354263953732 -2.5728738012485106 0 0 0
1226 1 -56.93423867722448 -11.426625224297673 2.5887239188206266 0 0 0
1227 1 -44.74324673540669 -13.685778775454047 -3.914156580436334 0 0 0
1228 1 -41.95586531415254 -13.735389162961631 -3.930236116403285 0 0 0
1229 1 -39.19893187581735 -11.372024460459528 0.02692219393411932 0 0 0
1249 1 -92.4561140060249 -9.142565666403236 -3.9301442149301744 0 0 0
1250 1 -81.2178554923633 -6.843033948893478 0.03319799556039271 0 0 0
1251 1 -72.82317499073741 -9.142679021694214 -3.95636422367103 0 0 0
1252 1 -71.90312558878419 -9.162245539544045 1.31869232302137 0 0 0
1253 1 -68.13840182067506 -6.848163213427128 2.6303516998144705 0 0 0
1254 1 -67.18054146328565 -9.115399038875601 -3.922124523951835 0 0 0
1255 1 -65.38194666112007 -6.822178641795162 2.585554603838954 0 0 0
1256 1 -55.9698715003253 -6.868097874491468 0.010813891343843807 0 0 0
1257 1 -50.38307856148574 -6.854654098472523 -0.03701694020937474 0 0 0
1258 1 -47.59174283627338 -9.169607646412388 -3.969644076980199 0 0 0
1259 1 -41.02756741889462 -6.868839596232981 -2.6002058898917895 0 0 0
1260 1 -40.10963147651037 -9.1458403219115 -1.289932369558736 0 0 0
1261 1 -37.33797303639487 -6.87498445705635 2.637947549338845 0 0 0
1307 1 -87.73374959463025 -4.519154770307303 -1.3173783685086793 0 0 0
1308 1 -85.87554787705497 -4.534198592945003 1.3431604402363426 0 0 0
1309 1 -83.12486476831388 -4.546610788362372 1.2727073641744706 0 0 0
1310 1 -77.55551795686111 -4.521276776729955 1.2758236078688174 0 0 0
1311 1 -76.60658548454586 -4.542968482816953 -1.3255037400228051 0 0 0
1312 1 -71.90171555585471 -4.536994125299003 1.346802809020856 0 0 0
1313 1 -65.34134573122846 -2.3073541755437077 2.624318707159212 0 0 0
1314 1 -60.706980647568294 -4.509719094211626 1.2880399882441935 0 0 0
1315 1 -56.92812193137833 -2.281593439112541 2.623416368530224 0 0 0
1316 1 -55.99459851089707 -4.537177359849537 -3.9505115674019944 0 0 0
1317 1 -53.194839563782985 -4.53490282746462 -3.9565262821624954 0 0 0
1318 1 -45.65396897291433 -2.2759625871593485 2.7065282645718955 0 0 0
1319 1 -42.872516679265274 -2.2482786608553127 2.6434413981248817 0 0 0
1320 1 -39.114047158513095 -4.541009137057216 -3.9425959898672653 0 0 0
1816 1 -91.52247726104082 -43.38764448669273 5.292522152827658 0 0 0
1817 1 -82.15206640161259 -45.693118759493274 6.639981669461289 0 0 0
1818 1 -82.11345824039121 -43.43939367855777 10.535896583877246 0 0 0
23668 3 -57.83601261270568 -38.883422057200875 5.278733308879389 0 0 0
23667 3 -63.43657503847969 -41.175564304192875 9.202573969127368 0 0 0
1821 1 -72.82771192356218 -43.482161758215106 7.933927961551525 0 0 0
1822 1 -66.24756701403683 -43.42727090908597 5.29942461320492 0 0 0
1823 1 -61.664456224838986 -43.491783891274174 7.913404973377194 0 0 0
23666 3 -67.20148536504423 -41.1801546999867 3.954786033799582 0 0 0
23665 3 -68.11687690137146 -41.19923891584645 6.577254910315354 0 0 0
1826 1 -59.78297518342592 -43.48618142124322 10.575182776745034 0 0 0
1827 1 -58.87805533010464 -43.46489520286861 7.898539372499574 0 0 0
23664 3 -71.86203235010431 -38.858182510164355 5.292741756392125 0 0 0
1829 1 -44.80653586918034 -45.71143998978526 4.022394564479038 0 0 0
1830 1 -42.88644996663843 -45.700540051377494 6.670212132783554 0 0 0
1831 1 -34.52686744642462 -43.45918415269706 10.564383469292668 0 0 0
1858 1 -90.54510335657551 -41.18457071127385 6.586363354712848 0 0 0
1859 1 -89.58675733467322 -41.14452721772155 4.010276605688299 0 0 0
1860 1 -72.81633459260293 -41.14369126325849 3.979365557428748 0 0 0
1861 1 -63.469421926645026 -38.91433059605544 5.275919458511726 0 0 0
1862 1 -59.721351273642725 -41.18209327735404 6.57165842065811 0 0 0
1863 1 -54.99898183904583 -38.86490008666899 5.314695503874763 0 0 0
1864 1 -45.76459716795073 -41.216304443876695 6.598037045320471 0 0 0
1865 1 -43.841609839611635 -38.907987733562585 5.281329186138198 0 0 0
1866 1 -41.97409096160705 -38.92168551107201 7.9431202580994835 0 0 0
1867 1 -33.57776117529171 -38.95704242770092 7.934372413647996 0 0 0
1891 1 -93.35073802303444 -36.680143777339154 6.604296699335695 0 0 0
1892 1 -87.76847291927695 -34.37247801577333 10.564823265837255 0 0 0
1893 1 -77.4726489576851 -36.61194108893058 9.308292752452601 0 0 0
1894 1 -73.73410938859926 -36.5751959238338 6.621219255023213 0 0 0
1895 1 -69.1244045337623 -34.32051468070761 5.302423275565523 0 0 0
1896 1 -66.25108657055148 -36.58779425206517 9.306786745079616 0 0 0
1897 1 -61.578110207563185 -34.30768430162996 7.923432726679067 0 0 0
1898 1 -59.645289045711635 -36.63335280663588 6.626854749037676 0 0 0
1899 1 -47.58483935969853 -36.53921814847928 3.9856889256821724 0 0 0
1900 1 -44.78490638312905 -36.565686302447936 3.9896016798806873 0 0 0
1901 1 -42.02154934593234 -36.558286759141936 3.937289571943319 0 0 0
1902 1 -42.03405696977974 -34.27697834427501 7.899117526070331 0 0 0
1903 1 -37.33534937800858 -34.30812411906201 10.538491350676747 0 0 0
1904 1 -35.47250215169297 -36.6264546055873 9.243817189647189 0 0 0
1905 1 -34.504515142825916 -34.40935935502219 10.580171206747021 0 0 0
1906 1 -33.619868908951084 -34.29454058580325 7.895837061636097 0 0 0
24007 3 -48.44982529116796 -4.5197028399608925 6.559073773082808 0 0 0
1935 1 -92.43501860777562 -32.0998365196177 3.9709427417810303 0 0 0
1936 1 -91.47655973321055 -32.038769003567836 9.237524510828408 0 0 0
1937 1 -91.54990828335262 -29.77226752866855 5.293719572100393 0 0 0
1938 1 -88.6356742301625 -32.07221678212301 9.220466808886936 0 0 0
1939 1 -82.18890272017299 -31.960214122929276 6.601760212963843 0 0 0
1940 1 -81.2662471257857 -31.996807108574842 3.9806939636249474 0 0 0
1941 1 -81.24233808053313 -29.70990123179169 7.918619030964059 0 0 0
1942 1 -80.26903376975808 -32.062586818934186 9.291393240942966 0 0 0
1943 1 -78.44820986702494 -29.756174965004664 7.952668838577644 0 0 0
1944 1 -75.6329248359794 -31.981986816061486 3.9736848872588393 0 0 0
1945 1 -68.15492671557259 -32.00541456842848 6.618963136837014 0 0 0
1946 1 -61.56117975673136 -32.07205288743358 3.953387418763306 0 0 0
1947 1 -60.66113592894402 -31.993621678024194 9.30713386988366 0 0 0
1948 1 -55.109185931454945 -32.06440082622498 9.275941256635637 0 0 0
1949 1 -51.28479297625978 -32.09792366657803 6.659091447084119 0 0 0
1950 1 -47.537412794267404 -32.10191830594401 4.005993118093182 0 0 0
1951 1 -46.62209213330657 -29.84509481831944 5.277418295879819 0 0 0
1952 1 -45.690940452080405 -29.77779207411899 10.59878846847312 0 0 0
1953 1 -41.98150355876473 -32.10701347943532 3.9535854725282142 0 0 0
1954 1 -39.19046774076195 -32.017540002281855 3.9723028247594563 0 0 0
1955 1 -37.30477016520663 -29.77170685277673 10.602501410224193 0 0 0
1956 1 -34.495953169307995 -32.027006492900945 6.560693469310721 0 0 0
24006 3 -49.41804915604398 -2.2857680403095912 5.281903419194521 0 0 0
1983 1 -92.41473248383643 -25.178076916874232 7.912829598477082 0 0 0
1984 1 -91.45539035643823 -27.423859114739262 9.231831221935437 0 0 0
1985 1 -86.78131605925589 -25.138097042624324 7.83484633134346 0 0 0
1986 1 -81.2596143387695 -25.18266057061191 7.889971257870084 0 0 0
1987 1 -76.55122848962048 -27.44158622790739 6.659218295515455 0 0 0
1988 1 -76.52765562202059 -25.195082261323012 10.57552573181015 0 0 0
1989 1 -70.92886496519898 -27.461648568293498 6.6102090182263495 0 0 0
1990 1 -70.92650019681707 -25.147426496454695 10.563395988714923 0 0 0
1991 1 -66.30323229595757 -27.395581392501793 9.22669842713686 0 0 0
1992 1 -65.3449825969929 -27.398774131248704 6.643834459900294 0 0 0
1993 1 -59.74979929503632 -27.427846082600635 6.584810973696378 0 0 0
1994 1 -51.3334386777634 -25.148796308903595 10.610182407035612 0 0 0
1995 1 -50.37775791512601 -27.48019483484171 3.9332730266628477 0 0 0
1996 1 -47.553385835134435 -27.488704909594986 3.964348360360674 0 0 0
1997 1 -47.5682089038702 -25.14187632729182 7.986399176031508 0 0 0
1998 1 -45.67168885958588 -27.448130008427146 6.61435019006737 0 0 0
1999 1 -42.88472376442986 -27.46293210339417 6.61067724014033 0 0 0
2000 1 -39.1699585741393 -25.133933884280417 7.945485551746405 0 0 0
2001 1 -37.300720958081534 -27.44866230830328 6.598931597891145 0 0 0
2002 1 -34.47727368227055 -27.44324629842348 6.554935788353525 0 0 0
2003 1 -32.65824181777406 -27.469706172271938 9.237956968839178 0 0 0
2027 1 -86.77549484088212 -20.6235979347328 7.883197296968568 0 0 0
2028 1 -78.39869107599608 -20.582531671169885 7.935624446763239 0 0 0
2029 1 -73.74378846283993 -22.85870047478033 6.642330254516718 0 0 0
2030 1 -68.18402943116078 -20.588985529397938 10.565651698096527 0 0 0
2031 1 -67.23965309476407 -20.620165460928796 7.940023629080901 0 0 0
2032 1 -64.46183303534612 -22.773238230426248 3.949559355655344 0 0 0
2033 1 -56.03152531808163 -22.830534963168635 3.9788375380632637 0 0 0
2034 1 -50.356787608623506 -20.51192786919465 7.927183773861898 0 0 0
2035 1 -47.60506699999193 -20.56803393236436 7.901937857053511 0 0 0
2036 1 -37.30018857302296 -22.799762641935185 6.621414170282399 0 0 0
2037 1 -36.36908148532136 -22.842671562137426 3.9512973272856247 0 0 0
24005 3 -50.32039252302269 -4.510924538879671 3.928577614997719 0 0 0
2068 1 -90.55957982797105 -16.015181636484346 10.544982593788898 0 0 0
2069 1 -89.53612465037565 -16.017703467873478 7.900424817334354 0 0 0
2070 1 -88.67172264632467 -18.285237631552317 9.252286474978913 0 0 0
2071 1 -81.27823494848265 -18.228627742944777 3.9295834703466266 0 0 0
2072 1 -80.30939697234285 -18.274938191782663 9.222928832832313 0 0 0
2073 1 -74.6924523881661 -18.307863279637306 9.26116764614704 0 0 0
2074 1 -72.82785733440595 -16.01742952257847 7.902350011474006 0 0 0
2075 1 -67.21320967191888 -16.034075414913538 7.9193112735827 0 0 0
2076 1 -58.834684829025264 -18.2462469885483 3.968367431945561 0 0 0
2077 1 -55.06504743212055 -16.013766306285458 5.276677466548126 0 0 0
2078 1 -53.16177300218806 -18.242738936069724 3.9149201147834543 0 0 0
2079 1 -52.202502416454514 -15.996155920557307 5.283579968475852 0 0 0
2080 1 -48.50595644985475 -16.0367536611328 10.53790728648561 0 0 0
2081 1 -44.783302509849975 -15.992235065380779 7.887273626219617 0 0 0
2082 1 -36.40309336141428 -18.222201408019078 3.9339121228890797 0 0 0