# Bcc oriented X=[-111] Y=[101] Z=[12-1].

24480 atoms
3 atom types

-95.18727654954 95.18727654954 xlo xhi
-45.71769755913 45.71769755913 ylo yhi
-11.877806246622 11.877806246622 zlo zhi
0 0 0 xy xz yz

Masses

1 92.908 #Nb
2 180.95 #Ta
3 50.941 #V

Atoms # atomic

1 1 -94.28482024001693 -43.41368672917483 -10.524599064384665 0 0 0
2 1 -93.34326026404402 -43.36713772826808 -5.3085675925163205 0 0 0
24026 3 -73.68446255262657 -4.523194959778543 6.573117459683573 0 0 0
4 1 -81.14930916377651 -43.44280337978158 -7.955912649614531 0 0 0
5 1 -80.20266018731678 -45.66822351191416 -6.590452525096964 0 0 0
6 1 -78.42078613147817 -45.6944465111219 -11.84310595716882 0 0 0
24025 3 -74.65075390268777 -2.2884368042312957 5.288633683864365 0 0 0
8 1 -50.40523044000641 -43.4001154117868 -7.905074324162318 0 0 0
24024 3 -79.34506419943017 -2.263086505846637 10.586049362857985 0 0 0
10 1 -37.45418769252222 -45.691332899765975 -9.281629860987703 0 0 0
24023 3 -87.71995760817998 -2.324406471464684 10.537925158165564 0 0 0
12 1 -31.844644182392685 -45.71387074325097 -9.256226121413544 0 0 0
44 1 -92.4003138233632 -41.108671781230576 -11.797839469405135 0 0 0
45 1 -91.53342584047928 -38.851956700895585 -10.539378326554827 0 0 0
46 1 -86.797014963508 -38.842780309198446 -7.923929155141189 0 0 0
47 1 -81.15350059058811 -41.15337951785487 -11.82022352863388 0 0 0
48 1 -80.22150761702976 -41.14348809676144 -6.63919818981224 0 0 0
49 1 -72.81192939952129 -38.836655778881706 -7.965264642132338 0 0 0
50 1 -71.87153470452803 -41.126324175778464 -6.654190792432465 0 0 0
51 1 -71.00348087143354 -38.870295698720746 -5.272304781711009 0 0 0
52 1 -66.3564384998591 -41.195122967869416 -6.576284243536349 0 0 0
53 1 -66.31290614281998 -38.863571364907926 -10.547274440118585 0 0 0
54 1 -64.45348563440139 -38.82656041239787 -7.907542703784227 0 0 0
55 1 -62.55886431285946 -41.15538958552978 -9.231955917257192 0 0 0
56 1 -62.565320740785296 -38.910285971582084 -5.283348002775191 0 0 0
57 1 -61.674624328340705 -38.85967893901533 -7.904368507932401 0 0 0
58 1 -57.895118695961955 -38.832579226602604 -10.571996979122524 0 0 0
59 1 -49.4420868148665 -38.8668057757697 -10.61739884428007 0 0 0
60 1 -47.55897653081274 -38.82931563871546 -7.955005922410756 0 0 0
61 1 -34.61492535231906 -38.80191397073081 -5.360548556341938 0 0 0
62 1 -31.840836575279013 -38.84428840695795 -5.2944320021481746 0 0 0
95 1 -91.4728487543273 -34.307112228558644 -10.537935788520517 0 0 0
96 1 -87.74202809603177 -36.5268293005883 -9.245662639407582 0 0 0
97 1 -86.7350288475235 -34.270556924611554 -7.88702128670492 0 0 0
98 1 -65.41682804949627 -36.627982017337146 -9.21862888577874 0 0 0
99 1 -63.525068737380025 -34.285035685775135 -10.575571506699047 0 0 0
100 1 -62.56050276738848 -34.283785090914954 -5.301267983235933 0 0 0
101 1 -61.58881675400724 -34.27499116002883 -7.936920175057547 0 0 0
102 1 -58.81177897687966 -34.236111311068775 -7.9423974630522824 0 0 0
103 1 -55.04739144120396 -34.253425340968064 -10.626290328923709 0 0 0
104 1 -53.16834797415414 -34.19304840122587 -7.951216872542982 0 0 0
105 1 -51.31978683272385 -36.55111062229631 -9.262693922710369 0 0 0
106 1 -51.3047494428744 -34.25887081377237 -5.293411729052441 0 0 0
107 1 -37.44475668088099 -36.56057685331097 -9.254976230810152 0 0 0
138 1 -94.20730465154669 -31.995157580766545 -6.621751821114937 0 0 0
139 1 -89.55774419518586 -29.659473766910885 -7.920755948866667 0 0 0
140 1 -83.97276441196986 -32.032375028898166 -11.867324764978482 0 0 0
141 1 -83.02873341393585 -31.962146046118217 -6.549230570263352 0 0 0
142 1 -81.19508254744339 -31.94598906547535 -11.790716669540135 0 0 0
143 1 -75.61060824707445 -31.952130408130927 -11.85444935449743 0 0 0
144 1 -65.37045491281725 -32.02833690205569 -9.249334649909876 0 0 0
145 1 -65.34132412261835 -29.6712452174674 -5.268344565133583 0 0 0
146 1 -62.52328262359799 -31.99552731861171 -9.237991789953803 0 0 0
147 1 -62.53863979620627 -29.65728133081308 -5.29810361500972 0 0 0
148 1 -58.8071378138103 -29.65353432590065 -7.949291622134985 0 0 0
149 1 -51.35701121655855 -29.68477916812811 -5.301998616769634 0 0 0
150 1 -50.385383773326446 -29.70071925360609 -7.94145980345187 0 0 0
151 1 -49.458080164999586 -31.97787737303097 -6.638939026920462 0 0 0
152 1 -49.4915468874001 -29.728547488752106 -10.531791293602659 0 0 0
153 1 -48.52214162384321 -29.682959915762837 -5.252102641341667 0 0 0
154 1 -45.693443764944426 -32.063920853535 -9.166395986204254 0 0 0
155 1 -42.91636243344896 -32.01468100961804 -9.242639390895587 0 0 0
156 1 -36.38080602202472 -29.71372028404062 -7.897916390077338 0 0 0
188 1 -94.22580800396292 -25.097944170603316 -10.51546616375579 0 0 0
189 1 -91.49163114128659 -25.12904052203309 -10.555553294801049 0 0 0
190 1 -88.70329625685311 -25.06010342803366 -10.580503562142525 0 0 0
191 1 -81.23854425447541 -27.415200077399756 -11.857530460453097 0 0 0
192 1 -70.99053863351055 -25.035809153842276 -5.311710447460704 0 0 0
193 1 -69.05646264559095 -25.105221119907185 -10.534570767724317 0 0 0
194 1 -68.12549636035482 -25.12064072502904 -5.255740008956957 0 0 0
195 1 -61.57770412868388 -27.37662299425797 11.857548996770177 0 0 -1
196 1 -60.625775008929715 -27.296974483990915 -6.587470538694822 0 0 0
197 1 -55.97991293314214 -27.353930700897923 11.874867408173909 0 0 -1
198 1 -47.57593855038242 -27.375812072110072 11.852066599609586 0 0 -1
199 1 -44.79539642235347 -27.38606429894999 -11.868242460140534 0 0 0
200 1 -41.103406401822255 -27.45741365224617 -6.606946495485015 0 0 0
201 1 -40.15431707006103 -27.42961977883255 -9.214463124245253 0 0 0
202 1 -38.29215522248641 -25.113664255988983 -10.530643752140778 0 0 0
203 1 -35.51992919100363 -25.15664597022024 -10.501832254793102 0 0 0
204 1 -33.64190399441934 -27.491135436461093 -11.83295674791532 0 0 0
205 1 -32.74163532349099 -25.21853866296401 -10.575043792480562 0 0 0
236 1 -94.2301020125378 -22.84865300663119 -6.613556573871133 0 0 0
237 1 -92.3498820858944 -22.857969647451238 -11.840930893227064 0 0 0
238 1 -83.07154451987171 -20.512491165384233 -10.573619976277538 0 0 0
239 1 -82.10409137937597 -22.812227120442405 -9.250576336816396 0 0 0
240 1 -78.47622066068459 -22.777093218034686 11.852527258957487 0 0 -1
241 1 -76.52782898980553 -20.555851838078507 -5.25668280695825 0 0 0
242 1 -71.86235795968862 -20.511768367161487 -10.522587151689473 0 0 0
243 1 -70.98297498889491 -22.794060713779132 -9.188448475362376 0 0 0
244 1 -69.0643911336339 -20.473285378063622 -10.475658887152454 0 0 0
245 1 -68.1497379082503 -20.486677728160384 -5.273887373530344 0 0 0
246 1 -64.38399517298716 -22.822144607404745 11.874024301434815 0 0 -1
247 1 -60.64457502722306 -22.84527645431396 -6.667204407664832 0 0 0
248 1 -59.70315215700156 -22.846741567078897 -9.214722620239895 0 0 0
249 1 -57.84831341044494 -20.51311334250985 -10.586658510167057 0 0 0
250 1 -55.95776383564463 -20.591503441872387 -7.93532184821735 0 0 0
251 1 -55.11727550840327 -20.59112608949981 -10.520531941524796 0 0 0
252 1 -47.61591485630799 -20.5627205861366 -7.908952070543714 0 0 0
253 1 -44.844165375631505 -22.877389384940578 11.860610872955117 0 0 -1
254 1 -43.92175733749568 -22.802209256242453 -6.586742731041123 0 0 0
255 1 -42.9705640115551 -20.571421731135636 -5.325672532438678 0 0 0
256 1 -39.284708951211044 -22.85285278086777 11.84341746468261 0 0 -1
257 1 -36.50623413003627 -20.555370703037838 -7.951691211151929 0 0 0
258 1 -34.55075909476716 -20.585162030816775 -5.26139996029553 0 0 0
294 1 -87.67350657657917 -18.18978233282568 -9.284881122377545 0 0 0
295 1 -86.70886625973213 -15.925225210481027 -7.980909585708906 0 0 0
296 1 -75.6197675231892 -15.962168766658607 -7.902227448018749 0 0 0
297 1 -73.7207898195162 -15.964080444020915 -5.221637196338704 0 0 0
298 1 -70.95511330071429 -15.960287342846517 -5.316532638265138 0 0 0
299 1 -64.36705848751058 -18.258155205656404 -11.870759767906177 0 0 0
300 1 -52.36070631500634 -18.284544995421744 -6.625895597601853 0 0 0
301 1 -51.34452397642033 -15.989521513830905 -5.287386063131863 0 0 0
302 1 -50.484716467860984 -18.279783435643616 11.8593026796812 0 0 -1
303 1 -45.773757594097475 -18.279780240982127 -9.264017508947138 0 0 0
304 1 -44.826953479094286 -16.043137377795766 -7.929474816141412 0 0 0
305 1 -37.3679627847129 -18.27512595353553 -9.224429865381815 0 0 0
306 1 -31.773778801336178 -18.269383573330018 -9.24405186052766 0 0 0
338 1 -84.89008779824184 -11.44355051714259 -5.287753761605192 0 0 0
339 1 -79.3723179008429 -11.325741504741998 -5.274691343533336 0 0 0
340 1 -77.47125216430975 -13.617703595671685 -6.561518414330565 0 0 0
341 1 -76.57256687711525 -11.323214896518998 -5.2403358493136984 0 0 0
342 1 -75.62163050614103 -11.349826684793442 -7.88713111475045 0 0 0
343 1 -70.93468358627116 -11.34437056585002 -5.2924081241216605 0 0 0
344 1 -68.16621673949051 -11.352367915187813 -5.267920422048892 0 0 0
345 1 -66.25593882068121 -13.622844638080366 -6.636062654694068 0 0 0
346 1 -64.40478648847842 -13.64439520744817 -11.86645754003705 0 0 0
347 1 -57.84950065755577 -13.679291744054467 -6.644927436655199 0 0 0
348 1 -55.930793279460715 -11.364149165182567 -7.988324498956089 0 0 0
349 1 -55.08270648750993 -13.655116840407715 -6.64765422216986 0 0 0
350 1 -45.791142730626184 -13.672966417837983 -9.280943772131641 0 0 0
351 1 -43.93537721413688 -13.701249247015731 -6.579663857565097 0 0 0
352 1 -42.01462362796285 -11.379033994082448 -7.912918509664102 0 0 0
353 1 -40.146070526655976 -13.714015102897633 -9.268252080299797 0 0 0
354 1 -39.203123835879715 -13.697086086865156 11.853926041340657 0 0 -1
355 1 -37.39453871021354 -11.416781646174698 -5.232374591327884 0 0 0
392 1 -93.23088924190516 -9.15114364513721 -9.26672160105313 0 0 0
393 1 -92.35142894824521 -6.824693337273274 -7.980241654424869 0 0 0
394 1 -83.94474179838836 -9.17218891046457 -11.82907388674309 0 0 0
395 1 -78.45676802668159 -9.112610074439964 -11.861503968431775 0 0 0
396 1 -78.44975574356832 -6.77511757814996 -7.919276337745307 0 0 0
397 1 -68.12276266377853 -6.834029476127363 -5.246431580018744 0 0 0
398 1 -66.26270531125441 -6.805787131619198 -10.600916508236926 0 0 0
399 1 -65.30647503564353 -6.8523051645777 -5.330001174552985 0 0 0
400 1 -64.37350310300151 -6.801641205090938 -7.952155626678914 0 0 0
401 1 -60.64664290968723 -9.076845330050404 -6.623857240162978 0 0 0
402 1 -58.81789957919129 -9.076974929073799 -11.868548260306577 0 0 0
403 1 -56.930797189617344 -9.076652610328786 -9.237165171108511 0 0 0
404 1 -56.00739054665999 -9.12981661287968 -11.84213861330659 0 0 0
405 1 -53.179707594390315 -9.076330738085616 11.855442126605318 0 0 -1
406 1 -45.75516496501079 -6.822075901248795 -5.240386065617757 0 0 0
407 1 -44.84636131390955 -9.074883524846157 11.806298547747812 0 0 -1
408 1 -44.83768707036112 -6.795212995694044 -7.917139449261307 0 0 0
409 1 -42.93742968808082 -6.841139873043851 -5.2991070006067815 0 0 0
410 1 -40.14204492088091 -9.015943076945959 -9.20575583468194 0 0 0
411 1 -39.25777244066972 -6.82719914809725 -7.880101014504357 0 0 0
412 1 -33.608727685443455 -9.170898905522826 11.873134315310391 0 0 -1
444 1 -83.97918497578753 -4.585562003082188 -11.846221266793982 0 0 0
445 1 -81.22881445324043 -2.3068303697375256 -7.842204155516459 0 0 0
446 1 -71.89862197694602 -2.253563875721156 -10.61112522371102 0 0 0
447 1 -70.97274922295725 -4.536098842921625 -9.281480270392251 0 0 0
448 1 -62.469970140549364 -4.526980145342868 -9.293783746914277 0 0 0
449 1 -61.624050116611734 -4.542430794802762 11.876161379597495 0 0 -1
450 1 -58.813291923213725 -4.501342473019548 -11.813501287375642 0 0 0
451 1 -55.171374794176465 -4.540099063272223 -6.61473561183466 0 0 0
452 1 -50.53960750365409 -2.217224308094522 -7.972126912710215 0 0 0
453 1 -49.583500769615746 -4.549279629817391 -6.641205553897238 0 0 0
454 1 -48.619515346966104 -2.2412705440087066 -5.284856029075687 0 0 0
455 1 -42.93969862617738 -4.503029333440928 -9.2473959373912 0 0 0
456 1 -42.95624236429793 -2.2599250065251226 -5.32238049767375 0 0 0
457 1 -41.08990097747912 -2.273417916796845 -10.612534374732713 0 0 0
458 1 -40.13993106586681 -4.5802697786000905 -9.263602887335852 0 0 0
459 1 -36.50660891727081 -4.580495233644029 11.848365052705784 0 0 -1
927 1 -95.15283133332497 -45.68876711063602 -3.952354110236268 0 0 0
928 1 -94.2527150555554 -43.41335438888516 -2.66612176254786 0 0 0
929 1 -82.12132726917523 -45.70060509668363 -1.2713162644077283 0 0 0
930 1 -73.67603023239249 -43.41396109374684 2.6508942395776174 0 0 0
931 1 -72.75565184679465 -45.67428620832549 -4.004247725432867 0 0 0
932 1 -71.87810315546652 -43.432578853772256 -2.714766628670187 0 0 0
933 1 -70.04474235272737 -43.43303450818878 0.015023470443434661 0 0 0
934 1 -69.09332559118839 -45.66863687113419 1.300059553228003 0 0 0
935 1 -68.11363224234368 -43.39248868613129 2.6725273088160257 0 0 0
936 1 -65.27913812263165 -43.44421577328918 2.624174908037233 0 0 0
937 1 -62.488223567422075 -43.40655345550317 2.68354805684689 0 0 0
938 1 -59.69739897549973 -45.71378451822858 -1.3340096630035578 0 0 0
939 1 -59.76124489164559 -43.44927751253213 2.686013676982112 0 0 0
24022 3 -90.49806694913015 -2.3283951358018484 10.559340324942731 0 0 0
941 1 -54.152940245239414 -45.70115871359902 -1.3598035504934671 0 0 0
24021 3 -92.34616145007374 -4.607405848978658 3.9203012524282617 0 0 0
943 1 -34.60976456323327 -43.40502879816805 2.683409722039487 0 0 0
944 1 -31.825140598495864 -45.71000585306873 -1.3223819414153066 0 0 0
970 1 -90.49542556898432 -41.15348264353468 -1.287971255007946 0 0 0
971 1 -89.6013720645024 -38.865538275933744 0.016197803778920772 0 0 0
972 1 -84.92628725453388 -38.87813475239216 2.62320180847618 0 0 0
973 1 -80.24948816646769 -38.826825524678014 -2.665010622728685 0 0 0
974 1 -78.32062517064962 -41.158377894123454 -3.975502539221491 0 0 0
975 1 -69.11120716128555 -38.84247716521497 -2.6400127274561136 0 0 0
976 1 -61.63385468096797 -38.90599475119864 0.0029567708064526244 0 0 0
977 1 -56.942537477160066 -38.878873098444856 2.657989104795565 0 0 0
978 1 -55.03717938334261 -38.86468026489327 -2.585055858059638 0 0 0
979 1 -50.39017544450827 -41.11719584453972 -3.9107916671604555 0 0 0
980 1 -47.602851842221476 -41.153085494510634 -3.9605377176348586 0 0 0
981 1 -47.618677671381555 -38.88182910751154 -0.005566518872511139 0 0 0
982 1 -41.04043394194848 -41.15284332850495 1.3544651138994883 0 0 0
983 1 -40.16173041630571 -38.8781522582799 2.6629083949698984 0 0 0
984 1 -36.42972108584568 -41.14336691899452 -4.02291317909171 0 0 0
985 1 -31.773159653627943 -38.790995038863606 2.6857243619940174 0 0 0
1017 1 -86.78394509981956 -34.253772050742505 -0.0050302558316346335 0 0 0
1018 1 -84.90799516085359 -34.227820643555134 2.622331405488037 0 0 0
1019 1 -77.46361658981421 -36.576461283860745 1.290305701388693 0 0 0
1020 1 -73.74101942108261 -36.59541665954085 -1.3639618325952174 0 0 0
1021 1 -58.774354880969724 -34.22355275894005 -0.01176819969195897 0 0 0
1022 1 -51.34867864909225 -34.2640045967553 2.6390628743243614 0 0 0
1023 1 -49.50812557485555 -36.594224277596744 1.3319330198424666 0 0 0
1024 1 -47.555666300342615 -36.53612518121583 -3.9528574273515567 0 0 0
1025 1 -43.8572282799847 -36.55072452788767 1.2964590166353815 0 0 0
1026 1 -42.945975766059 -36.55165853210824 -1.3393374490808903 0 0 0
1027 1 -37.40081854021426 -34.327086867833735 2.631418457334135 0 0 0
1028 1 -34.62107909504188 -36.57920701369031 -1.3755393112764018 0 0 0
1029 1 -32.74490349110963 -34.23988428543441 -2.7065721027895773 0 0 0
1062 1 -92.36349681374885 -29.660534535616158 -0.03337091209292531 0 0 0
1063 1 -83.03184685631693 -29.651219288319602 -2.715760560661222 0 0 0
1064 1 -80.21078652955276 -29.659242258539237 -2.706128597119042 0 0 0
1065 1 -77.46187000166896 -31.94564360157426 1.2837456535633578 0 0 0
1066 1 -67.1842782154279 -29.626487082404 0.007402724113616088 0 0 0
1067 1 -64.42052353081958 -29.64044765247583 -0.006942577427876628 0 0 0
1068 1 -63.51470636493843 -31.9558882438236 1.3071520981900075 0 0 0
1069 1 -62.49797542714699 -29.65654544410181 2.6112765144382966 0 0 0
1070 1 -61.57536681181364 -29.639420471162836 0.0026325903288917374 0 0 0
1071 1 -59.75777844459129 -31.976893039100773 -1.3404590483744805 0 0 0
1072 1 -58.78106150603226 -29.740506333006998 0.01832907368768666 0 0 0
1073 1 -54.08748618636044 -31.933150079642125 -1.3501581878878692 0 0 0
1074 1 -53.23616887737179 -31.98632013364815 -3.9913842665237027 0 0 0
1075 1 -50.40297717924045 -31.982098249401584 -3.977497474897987 0 0 0
1076 1 -43.86928362751261 -29.679880641406104 -2.618885527800842 0 0 0
1077 1 -39.22962069365993 -32.02587452407345 -4.035106612223643 0 0 0
1078 1 -37.3536354459689 -32.028223041579444 -1.3929972705497384 0 0 0
1079 1 -37.41724574019132 -29.69690707780239 2.5803718144926275 0 0 0
1080 1 -32.728464092897624 -32.017719896226275 1.2767373804242848 0 0 0
1081 1 -31.778920397475005 -29.712104371682134 2.581789554465816 0 0 0
1104 1 -91.39157487814565 -25.107745538999186 -2.6591578225424026 0 0 0
1105 1 -72.91774813357861 -27.371325072138653 -3.9737669430289815 0 0 0
1106 1 -56.89755652970922 -25.135714525461374 2.6145006983273262 0 0 0
1107 1 -52.3153563479242 -25.106864564246386 -2.6619895600374157 0 0 0
1108 1 -51.31797365785067 -27.328755129569846 -1.3387716603715916 0 0 0
1109 1 -47.610254565232346 -25.122824983096784 0.043221645637785855 0 0 0
1110 1 -43.88881509593408 -25.09884183167962 -2.6358282865211216 0 0 0
1111 1 -42.00705478588219 -25.151050290003607 0.056786806843296844 0 0 0
1112 1 -41.11239690643702 -25.11140747314877 -2.6908762254568686 0 0 0
1113 1 -38.353535146323914 -27.402667137404453 1.3044929203144768 0 0 0
1146 1 -90.47971649726951 -22.824531166872116 -1.3721219567764091 0 0 0
1147 1 -85.84789712313732 -22.845233182770517 1.2967346594229827 0 0 0
1148 1 -83.97845005324878 -20.5244006099728 -0.027938412405063673 0 0 0
1149 1 -82.10743281161182 -20.489626534992276 2.6209312401007256 0 0 0
1150 1 -67.16412498880987 -22.833095027814643 -4.0016496012504605 0 0 0
1151 1 -66.30074774321193 -22.829205254208254 1.2528039728790628 0 0 0
1152 1 -58.76936846364506 -22.86951135102012 -4.012561465099547 0 0 0
1153 1 -49.46335105231232 -20.519451973311426 -2.625153338968211 0 0 0
1154 1 -47.5726022603784 -22.830737528790426 -3.95428220565005 0 0 0
1155 1 -46.70032930253234 -22.831633504219653 1.3355333606939404 0 0 0
1156 1 -38.32937866513081 -20.552461297403436 -2.676162119572094 0 0 0
1157 1 -37.36101787570828 -20.544276153022388 2.625394190240222 0 0 0
1158 1 -36.45860643304489 -20.544498481511507 0.023559107447244543 0 0 0
1159 1 -32.702255524735854 -22.882350468798567 1.2773972403914797 0 0 0
1190 1 -95.17960777504169 -15.906092966817013 -0.00785723121258286 0 0 0
1191 1 -80.23245781731062 -15.866067079920825 -2.5958978052744914 0 0 0
1192 1 -77.46782267832232 -15.951239573830108 -2.6045231130157713 0 0 0
1193 1 -76.56524344157481 -15.945707462365984 2.6326253518407725 0 0 0
1194 1 -72.77962907260373 -15.934337274741289 -0.038012723532759196 0 0 0
1195 1 -67.23340161007671 -15.969829626956091 -0.03197821193229444 0 0 0
1196 1 -66.23936765456445 -18.187630631851388 1.2872979547951342 0 0 0
1197 1 -63.500805033571964 -18.280599511839675 1.281525160281106 0 0 0
1198 1 -61.596342168380026 -18.269613950711907 -3.993084963195024 0 0 0
1199 1 -61.58392944502332 -15.98051818239065 -0.04175351221762824 0 0 0
1200 1 -60.685300221114495 -15.998818078538065 -2.673656951867276 0 0 0
1201 1 -56.906965697015124 -18.269124908130173 -1.4007846997698277 0 0 0
1202 1 -55.943737206400314 -18.279987574122707 -4.038810471131511 0 0 0
1203 1 -51.3228571973779 -18.30438281933002 -1.292716339784885 0 0 0
1204 1 -37.33886854525093 -15.976602983855553 2.645810963158919 0 0 0
1205 1 -33.64438918678377 -18.23178356417792 -3.9959597402818776 0 0 0
1206 1 -31.836221641321046 -16.001849498416618 2.5942100710021325 0 0 0
1237 1 -93.23134770057757 -11.413831485008934 2.5775055399925755 0 0 0
1238 1 -90.49958968952204 -11.431373748740327 2.6578362939760467 0 0 0
1239 1 -76.63274922014945 -13.581598141248932 -1.332145739685382 0 0 0
1240 1 -64.40345177400653 -13.616395058731996 -3.9794261319470046 0 0 0
1241 1 -57.850013920986406 -13.664193891037357 1.323827717115087 0 0 0
1242 1 -51.26605712856705 -13.66248873881873 -1.3290620796779358 0 0 0
1243 1 -43.01147934492192 -13.673482653073883 -1.232231197486179 0 0 0
1244 1 -39.320241844253694 -11.447979198044152 -0.008916449818977767 0 0 0
1245 1 -37.39981076932882 -13.663362752289807 -1.380571311284566 0 0 0
1246 1 -36.478360060121894 -13.7204154797403 -3.969309576467883 0 0 0
1247 1 -36.47461928485162 -11.418249381770423 -0.002780995472287273 0 0 0
1278 1 -94.22049372304697 -9.163569096002774 1.3328845541705086 0 0 0
1279 1 -89.55980663071273 -9.123483852324682 -3.89832915012859 0 0 0
1280 1 -86.76696596791531 -6.867763777416563 0.03443248841436386 0 0 0
1281 1 -85.83077565116842 -9.135530276552508 1.2661618824084293 0 0 0
1282 1 -80.24159490054795 -6.872095426488926 -2.7106215082899148 0 0 0
1283 1 -64.4318753596191 -6.821874729131309 -0.06143079967600329 0 0 0
1284 1 -60.699536502646005 -6.769089320806934 -2.659077592246188 0 0 0
1285 1 -55.05332371409011 -9.101480570348642 1.3231878739626861 0 0 0
1286 1 -50.433594406441166 -9.107448397423681 -3.98870548544145 0 0 0
1287 1 -46.72549684281201 -6.809257576063416 -2.589962492475177 0 0 0
1288 1 -40.15170374748516 -6.837156869577058 2.6144473566784043 0 0 0
1289 1 -37.40621285917733 -9.145850434103131 -1.3692545212948275 0 0 0
1321 1 -95.08491348004976 -2.330314424643717 0.003457419782732174 0 0 0
1322 1 -86.79914899368029 -2.2536968665202153 0.018638584232885336 0 0 0
1323 1 -84.95252108309013 -2.3319908236169837 2.664111975732606 0 0 0
1324 1 -75.62793513724664 -2.325177192824512 -0.05522423605387594 0 0 0
1325 1 -70.02469521592788 -4.532945517195415 -3.98071942059502 0 0 0
1326 1 -60.63912968526605 -2.27599588277603 -2.643346255298571 0 0 0
1327 1 -59.73136959058529 -4.509283251040742 -1.4048688404674863 0 0 0
1328 1 -59.73227375093731 -2.2617449732777857 2.6311133706859167 0 0 0
1329 1 -45.81400499273734 -4.569985421042034 -1.266953791996416 0 0 0
1330 1 -42.98144654361738 -2.245818172327752 2.6984615435153145 0 0 0
1331 1 -42.077579230051946 -4.586986315165767 -3.9597748529541876 0 0 0
1332 1 -40.161352495203374 -4.52573175048969 -1.3073489343625901 0 0 0
1333 1 -39.21698579622789 -2.2983084190380225 0.061322385870672846 0 0 0
1334 1 -36.473298530726325 -2.2199536431345877 0.04367154858787181 0 0 0
1335 1 -31.774600612835492 -4.564968842847762 -1.380798878011225 0 0 0
1336 1 -31.750618044544723 -2.2777905112104975 2.6526789182799444 0 0 0
1863 1 -95.1637217166462 -43.3780386989573 7.920092449186853 0 0 0
1864 1 -88.64367849138682 -43.44492128245969 5.288137184026418 0 0 0
23996 3 -38.34487958366604 -6.825986243546467 5.2526131688971915 0 0 0
1866 1 -78.37833932643412 -43.44581923121346 7.948077299489697 0 0 0
23995 3 -50.409270944518596 -9.079558253772106 3.980439182721618 0 0 0
1868 1 -68.16908824552594 -43.411483252555314 10.574577033103385 0 0 0
1869 1 -64.4055714308926 -43.40600080986594 7.8871567690304225 0 0 0
1870 1 -61.66880672782634 -43.35630912462372 7.920213799033814 0 0 0
1871 1 -59.75539843405001 -45.70771990481091 6.579181766819929 0 0 0
1872 1 -56.02230091660521 -43.43197791349679 7.925949398529212 0 0 0
1873 1 -47.61846841812814 -43.438101565706056 7.884790441606398 0 0 0
1874 1 -42.972463441986804 -45.714726351511324 6.626175789257502 0 0 0
1875 1 -40.14195372222325 -45.69890175603499 6.6117677416142016 0 0 0
23994 3 -51.33614384671316 -6.827608746675914 10.515434439538133 0 0 0
24038 3 -32.71011033454835 -2.2734323628672115 5.262343775126254 0 0 0
1909 1 -90.55552413038151 -38.846582837737664 10.619407404813352 0 0 0
1910 1 -82.11818777949321 -38.88147086306165 10.582588540120067 0 0 0
1911 1 -77.44678360769959 -41.13669837026357 9.2628896764788 0 0 0
1912 1 -72.7884603889639 -41.17322138212436 3.9823037571322732 0 0 0
1913 1 -72.76120026321293 -38.84142052763604 7.872382476167985 0 0 0
1914 1 -71.84509609906301 -38.87735228803701 5.259731089077757 0 0 0
1915 1 -69.99780882373763 -38.86987667212018 7.939001277589465 0 0 0
1916 1 -66.2917119990679 -41.1153873149291 9.250806510712628 0 0 0
1917 1 -59.764741790296505 -38.85039895137959 10.52502894019472 0 0 0
1918 1 -57.847210011226515 -38.875649383989916 5.300409146230805 0 0 0
1919 1 -55.02603131504245 -38.874028669397 5.279295758695106 0 0 0
1920 1 -49.47284294901998 -38.80129841413022 5.259612669957789 0 0 0
1921 1 -38.27405382984233 -41.13645866464473 9.284949403269852 0 0 0
1922 1 -36.447489139618185 -38.83286535350186 7.938730510985302 0 0 0
24037 3 -43.922663257953424 -4.475445403941698 9.200878053224443 0 0 0
24036 3 -44.84283390090364 -2.248774170726776 7.897113703011314 0 0 0
1956 1 -94.25892374166361 -36.5498431587235 9.312580859881471 0 0 0
1957 1 -92.39817439771466 -34.255101283543794 7.973258920947526 0 0 0
1958 1 -70.02863172967268 -34.289372993271314 7.940081672749255 0 0 0
1959 1 -55.01929696994777 -34.296313642246254 5.313113344381776 0 0 0
1960 1 -48.53309618960338 -36.53608421504323 6.650419677100629 0 0 0
1961 1 -45.706647213265285 -34.28880032632312 10.584427188159452 0 0 0
1962 1 -38.32796787725346 -34.28340092369915 5.321447927497118 0 0 0
1963 1 -36.427878210229935 -36.57281066487163 3.9634778994935527 0 0 0
1994 1 -94.26798048826579 -29.665184862642306 5.302845419858649 0 0 0
1995 1 -93.29894254607241 -31.970273258961846 6.617783041592915 0 0 0
1996 1 -92.3583644925456 -31.955433123498914 3.967271331874363 0 0 0
1997 1 -91.3639040465782 -29.67414791161406 5.303522017450781 0 0 0
1998 1 -86.81544991592224 -31.907459590394875 3.958742925368533 0 0 0
1999 1 -84.06006902449118 -31.94990014438335 3.958081778177897 0 0 0
2000 1 -83.03163405702722 -29.668355101341483 5.235861591393704 0 0 0
2001 1 -78.39929412204955 -31.978785088069102 3.931751935818445 0 0 0
2002 1 -77.44175545023712 -31.98156138251821 9.260179813090062 0 0 0
2003 1 -76.48878912369732 -31.993207775135815 6.628878985638785 0 0 0
2004 1 -76.51783499291642 -29.662552005079874 10.556448889880617 0 0 0
2005 1 -75.58034969523845 -29.712550330811 7.927978426347249 0 0 0
2006 1 -73.71980221411553 -32.01255833863814 6.618728999947148 0 0 0
2007 1 -70.96549052695293 -29.763805108315086 10.537835598890094 0 0 0
2008 1 -60.66960411354737 -31.95728430203829 9.261226791156439 0 0 0
2009 1 -58.78472548797329 -29.651045626408028 7.891719790916323 0 0 0
2010 1 -55.02321343873606 -32.01113706567074 9.259654156611926 0 0 0
2011 1 -46.65984714777489 -29.658082013302014 5.259507496418422 0 0 0
2012 1 -44.76728760895145 -31.96834652228566 3.95532247230018 0 0 0
2013 1 -39.23107471658668 -32.009530559793106 3.981091267585647 0 0 0
2014 1 -35.52177365793409 -29.735779743046535 5.304202869606517 0 0 0
2038 1 -94.24129197925424 -27.380464439445646 9.26637043592239 0 0 0
2039 1 -93.30176886789205 -27.392590477947238 6.613152745326957 0 0 0
2040 1 -86.75597211266091 -25.061726176539608 7.90339839649333 0 0 0
2041 1 -79.3367586694302 -25.076687296211244 10.590593039911294 0 0 0
2042 1 -76.52262308903838 -25.092801791456058 10.573949244986242 0 0 0
2043 1 -70.94951840386706 -25.100143280990704 10.557276517423766 0 0 0
2044 1 -58.83192387672305 -27.408600013907865 3.949963693359452 0 0 0
2045 1 -48.531871477266634 -27.29744153085748 6.598615706019029 0 0 0
2046 1 -41.11874471225698 -27.393239866678393 9.24542115009849 0 0 0
2047 1 -38.374769085113684 -25.148706563522246 5.25415436280349 0 0 0
2048 1 -34.610722505654884 -27.438801058809084 6.586021735811581 0 0 0
2071 1 -84.9195747340489 -20.472079638973902 10.519624858177892 0 0 0
2072 1 -80.21704951955067 -20.52753523230576 5.290224598200432 0 0 0
2073 1 -77.45412638826558 -20.506661675204327 5.276425903156202 0 0 0
2074 1 -76.57143440982885 -22.768698705183294 6.591879795370481 0 0 0
2075 1 -72.85147166921418 -20.51404809711038 7.912824749633479 0 0 0
2076 1 -58.78630386893389 -22.839564428571613 3.970080208893938 0 0 0
2077 1 -55.988679300213136 -20.540810250311548 7.9142381538799285 0 0 0
2078 1 -52.289698434959114 -20.507911822333657 5.248921456108082 0 0 0
2079 1 -48.48530781159605 -22.850813671734038 6.620901226647412 0 0 0
2080 1 -45.75512028029909 -22.80612187894402 6.566431003171598 0 0 0
2081 1 -42.939213400127954 -20.605985384633325 10.566608303769872 0 0 0
2082 1 -38.368244618641896 -22.81300137174969 9.259219922603226 0 0 0
2083 1 -33.67257787292117 -20.507399498119586 7.946461853319537 0 0 0
2084 1 -31.772825713543114 -22.837922691036923 6.581582485667056 0 0 0
24035 3 -49.39746927168215 -2.3012455584762606 5.284668219223164 0 0 0
2121 1 -88.63052871469685 -15.969002873360196 5.268130650888722 0 0 0
2122 1 -78.44433360315486 -15.987584658663916 7.895709777626628 0 0 0
2123 1 -70.05832390341571 -15.91141388515641 7.901204319819449 0 0 0
2124 1 -63.40301923118621 -18.192110218567546 9.266817329301908 0 0 0
2125 1 -60.574014766089725 -18.26218115746566 9.204432426953328 0 0 0
2126 1 -60.605208660244784 -15.96916552497256 5.284983872916342 0 0 0
2127 1 -57.870118852006506 -18.27638252946188 9.224093203620086 0 0 0
2128 1 -55.947941351717276 -15.945255986051588 7.903607102510136 0 0 0
2129 1 -48.564739993435325 -15.980711159240272 10.507801493329328 0 0 0
2130 1 -40.17214318129967 -15.980286267097728 10.561968145339428 0 0 0
2131 1 -39.249215940408924 -18.25190458945928 3.948718022010647 0 0 0
2167 1 -91.4248256406884 -11.374289345024337 5.265281114866514 0 0 0
2168 1 -89.56431670491261 -13.707735436250275 3.970596475805566 0 0 0
2169 1 -86.81546628354536 -13.674449146935189 3.9372821238924534 0 0 0
2170 1 -83.93730769954651 -11.368308335219417 7.936790325699093 0 0 0
2171 1 -77.45155668105723 -13.749753268394592 9.251809837847194 0 0 0
2172 1 -76.55549441429439 -13.664842481674185 6.605766782518359 0 0 0
2173 1 -74.68460218729984 -13.631103409249128 9.24107386849549 0 0 0
2174 1 -70.93961443533463 -13.614950034713452 6.586013956598567 0 0 0