# Bcc oriented X=[-111] Y=[101] Z=[12-1].

24480 atoms
3 atom types

-95.18727654954 95.18727654954 xlo xhi
-45.71769755913 45.71769755913 ylo yhi
-11.877806246622 11.877806246622 zlo zhi
0 0 0 xy xz yz

Masses

1 92.908 #Nb
2 180.95 #Ta
3 50.941 #V

Atoms # atomic

1 1 -95.15472566891833 -45.68332294065098 11.860158431507532 0 0 -1
24003 3 -35.461764442293486 -2.2899495270771553 5.254170437202141 0 0 0
3 1 -94.2822587554665 -45.69604075856186 -6.598423725623645 0 0 0
23851 3 -46.6596490684047 -15.986163846038473 5.336628000071119 0 0 0
5 1 -83.04071045028265 -45.69158590082598 -6.629464989012828 0 0 0
6 1 -83.03909967317904 -43.42292048457166 -10.584624713980302 0 0 0
7 1 -79.26066490587552 -45.684364692693414 -9.248255471648843 0 0 0
23850 3 -46.62070389845445 -18.25161031486816 9.248431541991831 0 0 0
23849 3 -64.32954630576931 -18.22945315986142 3.994465218518515 0 0 0
10 1 -66.24826260269158 -43.448431282798936 -10.526581719980138 0 0 0
11 1 -63.449495320207745 -43.44714352848293 -10.577061630376233 0 0 0
23848 3 -65.26615941263269 -18.269849609097392 6.606633586769309 0 0 0
23847 3 -68.07030279008468 -18.255682258222983 6.606482713144079 0 0 0
14 1 -57.837375920664925 -43.48154229902828 -10.562686733377538 0 0 0
23846 3 -69.02425911621955 -18.30205345271757 9.200259423752442 0 0 0
16 1 -52.15365731803348 -43.45827170017549 -10.594554932636573 0 0 0
17 1 -48.46873190038724 -43.44303387145103 -5.258513900294862 0 0 0
18 1 -39.167555851785934 -43.446495269374786 -7.924680657656253 0 0 0
19 1 -37.26920282843971 -43.450124986239366 -5.234546414649315 0 0 0
20 1 -35.36894309988361 -43.45230052492308 -10.619252579456932 0 0 0
52 1 -95.17030917956737 -38.85121868961069 -7.912162356806679 0 0 0
53 1 -88.60702625660686 -41.16413042244416 -6.631422095732258 0 0 0
54 1 -85.85706504968728 -41.120115587725635 -6.647200717207957 0 0 0
55 1 -83.01953591327374 -38.82765401264289 -10.578822240675377 0 0 0
56 1 -81.1524344680638 -41.107358418633154 11.869707991760464 0 0 -1
57 1 -73.7132182979678 -41.19131368793872 -9.229269684279911 0 0 0
58 1 -71.81458503049122 -41.14276257477712 -6.52958171159998 0 0 0
59 1 -64.36580171061325 -38.83110268800867 -7.892339382228107 0 0 0
60 1 -63.41400084687143 -41.117580627681726 -6.585898828841731 0 0 0
61 1 -55.93322221504513 -41.167726578542364 11.801780809710475 0 0 -1
62 1 -49.3699296456941 -41.171268334151115 -6.532704221148308 0 0 0
63 1 -48.52288369565806 -38.85817040354052 -5.24905425138135 0 0 0
64 1 -47.53629655495085 -41.14034797512646 11.849534574321623 0 0 -1
65 1 -46.58588522809703 -41.128565432537265 -6.535823222772477 0 0 0
66 1 -38.211243459945294 -38.85181022429421 -10.557381973480455 0 0 0
67 1 -32.65728980504137 -38.86816500150082 -10.615305341106351 0 0 0
24002 3 -41.05102641221832 -2.286684936194689 5.27358821160049 0 0 0
100 1 -93.27422961380726 -36.579755443672504 -9.253402014272094 0 0 0
101 1 -80.19952662771352 -36.572262698019685 -6.611720612566431 0 0 0
102 1 -79.33995511355084 -36.57186748505075 -9.258209040767223 0 0 0
103 1 -78.36051347775656 -36.60429787320915 -11.821862544683327 0 0 0
104 1 -71.82724569640375 -34.22105072845929 -10.57748055781462 0 0 0
105 1 -58.85061387819108 -34.30276355395521 -7.886287506243908 0 0 0
106 1 -51.20674969708479 -34.32488763261264 -5.250347313246893 0 0 0
107 1 -50.306838422330806 -36.58078786014788 -11.835038994479374 0 0 0
108 1 -46.64224722974665 -36.545663913314854 -6.513748330247443 0 0 0
109 1 -44.77461754003775 -34.239810629660276 -7.861073049402751 0 0 0
110 1 -43.84581919101034 -34.28825002109886 -10.52588121664023 0 0 0
111 1 -40.09813301609249 -34.303773514744854 -5.268848758508228 0 0 0
112 1 -36.3645817396424 -34.33220696737913 -7.914649324590215 0 0 0
113 1 -33.580089950352495 -34.27697007210832 -7.879337063932074 0 0 0
24001 3 -41.99726393868903 -4.55455309132104 3.96062104006387 0 0 0
141 1 -90.51236311026376 -29.67824172477705 -5.2817992569723495 0 0 0
142 1 -86.8015210538929 -32.01430095375421 11.841303452077554 0 0 -1
143 1 -78.33619091848881 -32.05184452705619 -11.876766779582628 0 0 0
144 1 -78.33994421659258 -29.736009066813644 -7.932551158056713 0 0 0
145 1 -76.46239672771705 -29.674039644423676 -5.262576180473648 0 0 0
146 1 -75.53614978791309 -29.759294044859537 -7.87968308449056 0 0 0
147 1 -74.5839293692907 -29.759608800124255 -10.545982848636973 0 0 0
148 1 -69.05188554893607 -29.741561625018768 -10.551195917475692 0 0 0
149 1 -67.12314466870541 -31.97415458758642 11.864832493602918 0 0 -1
150 1 -65.33575330760023 -29.73591897267847 -5.249514484903369 0 0 0
151 1 -61.56605387433191 -29.727511633094508 -7.92348934494968 0 0 0
152 1 -55.95804868287117 -29.68603383668686 -7.915601648787561 0 0 0
153 1 -53.14372808107629 -29.678401419376947 -7.904014009922358 0 0 0
154 1 -50.36121173301209 -31.963582207870573 -11.843686237127232 0 0 0
155 1 -49.39980054439185 -31.992586377838997 -6.571205420190888 0 0 0
156 1 -48.44288571854877 -31.97698308709417 -9.158861178626726 0 0 0
157 1 -42.941861733278394 -29.702641678548176 -5.260572433856103 0 0 0
158 1 -41.016084181829406 -31.969127162046895 -6.584878707740026 0 0 0
24000 3 -50.440534908572495 -2.2807158378005354 7.950835494609123 0 0 0
193 1 -92.34428289640023 -27.419831079675227 -11.86803632636273 0 0 0
194 1 -91.43707949741079 -25.122926413852458 -10.614018547860768 0 0 0
195 1 -84.87000236665315 -27.382089467397787 -9.228124490627312 0 0 0
196 1 -83.02379653104006 -27.41904116152093 -6.537726273422168 0 0 0
197 1 -76.45062478970218 -27.44402147804667 -9.227587804005093 0 0 0
198 1 -73.71878434407242 -25.16451619171512 -5.290828061786752 0 0 0
199 1 -69.9864864805235 -27.460326844093654 11.877363857150023 0 0 -1
200 1 -68.1301321361169 -27.441717662760848 -9.220774572632829 0 0 0
201 1 -68.12703447373167 -25.1423063816893 -5.318060625318042 0 0 0
202 1 -67.197919870771 -27.44330185469829 -11.876658102480931 0 0 0
203 1 -60.630151432770745 -25.128382954548506 -10.550820746201648 0 0 0
204 1 -57.826634496473254 -25.099807385392737 -10.583435265716489 0 0 0
205 1 -53.103757361808434 -27.364625667968152 11.824816029034288 0 0 -1
206 1 -52.23262317954333 -27.38526280525028 -6.563711954040858 0 0 0
207 1 -47.55167914255021 -27.341245382796966 -11.835491073312118 0 0 0
208 1 -42.92524819575088 -25.1454726429005 -5.332289293165099 0 0 0
209 1 -38.23580858390036 -25.10042966483526 -10.57268764527673 0 0 0
210 1 -35.436462232385395 -25.109263532406654 -10.546359042146506 0 0 0
245 1 -93.30222798879528 -22.830749768902482 -9.254174497691277 0 0 0
246 1 -92.41832093444329 -22.831929730442095 -11.865612131898233 0 0 0
247 1 -92.35965458918078 -20.565080460121493 -7.9771716199752944 0 0 0
248 1 -72.7931306292651 -22.846299564529737 -11.862606831193872 0 0 0
249 1 -66.2432315440618 -20.592138188249894 -10.596769759392437 0 0 0
250 1 -54.99375695179402 -20.553034652314047 -10.587510258047468 0 0 0
251 1 -51.23692632974703 -20.530241240499443 -5.273366646492061 0 0 0
252 1 -42.002703250782 -20.50753951638875 -7.936857681748695 0 0 0
253 1 -40.12571600345691 -22.778089805790284 -9.276251452378627 0 0 0
254 1 -38.24418499142943 -22.798350136040398 -6.589719346995456 0 0 0
284 1 -94.2927519408713 -18.25992375678494 -6.608150908047011 0 0 0
285 1 -84.97037501571442 -15.946378836156562 -5.279283953229214 0 0 0
286 1 -77.4607186779133 -18.284445508824223 -6.688754886994634 0 0 0
287 1 -75.60661206675697 -18.276243323362248 -11.844788903977863 0 0 0
288 1 -72.75355101949906 -15.968789649070612 -7.969899136943987 0 0 0
289 1 -71.8963997551971 -18.32444322502225 -6.668026977034218 0 0 0
290 1 -69.1099779827843 -15.970298004009791 -10.558731366800124 0 0 0
291 1 -67.16976183641215 -18.32286653199079 11.833130489657627 0 0 -1
292 1 -47.53219224552019 -18.260967531019364 11.85986956725333 0 0 -1
293 1 -33.646597926992314 -18.241096434619912 -11.871515365557828 0 0 0
329 1 -91.42674471272619 -11.393048173511964 -10.521037955556018 0 0 0
330 1 -89.58373449504445 -13.708162480119945 11.86443798246944 0 0 -1
331 1 -85.90514139274904 -13.705407357980832 -6.573443021370149 0 0 0
332 1 -83.11444627681958 -11.48833446480721 -10.545209338960644 0 0 0
333 1 -82.09236668346482 -13.766687653137048 -9.224402076615089 0 0 0
334 1 -81.21338165512431 -13.781907088729938 -11.843604365582385 0 0 0
335 1 -80.22175598524875 -11.456861171245414 -10.596047771502514 0 0 0
336 1 -77.44010665087691 -11.454428667695183 -10.588759370336726 0 0 0
337 1 -75.53322036645467 -13.69746150814025 11.870343058021867 0 0 -1
338 1 -73.65497571035579 -11.44341593169333 -5.330666729032603 0 0 0
339 1 -72.79898991772245 -11.40072636596345 -7.96955326062049 0 0 0
340 1 -69.9536900184587 -13.729906285711515 11.854737780801116 0 0 -1
341 1 -67.18500691537992 -13.691836170874844 -11.867220165541928 0 0 0
342 1 -61.571869129759854 -11.351893658739677 -7.935453857874142 0 0 0
343 1 -56.90431884096703 -11.371139702661516 -5.27766904040267 0 0 0
344 1 -45.69896147194903 -11.485191807049148 -5.276828300552635 0 0 0
345 1 -44.78353034217261 -13.75131281177076 -11.816851429685023 0 0 0
346 1 -32.68941469870127 -11.377525100304979 -10.581201200349698 0 0 0
377 1 -95.18584890787187 -6.824579186798751 -7.945645667848227 0 0 0
378 1 -93.31116868101583 -6.854084245871739 -5.236894410500108 0 0 0
379 1 -83.96880101094875 -9.187102567135156 11.8762048984112 0 0 -1
380 1 -81.2156369560434 -9.192660291693969 11.810376795545121 0 0 -1
381 1 -73.66578649614323 -9.099078292625933 -9.299309274508357 0 0 0
382 1 -65.25214804843756 -9.090303607752801 -9.233744946828415 0 0 0
383 1 -62.4484920355675 -9.072539058493739 -9.2792411183166 0 0 0
384 1 -61.51228585669157 -9.095407823803022 11.83789534427747 0 0 -1
385 1 -55.93163277573216 -9.077528712403371 11.83214655241748 0 0 -1
386 1 -55.06487793117667 -6.8662704164194395 -10.568867998609015 0 0 0
387 1 -52.238736751920065 -9.114469254104797 -6.591037680829495 0 0 0
388 1 -51.33927113918635 -9.120005411748608 -9.245736964366388 0 0 0
389 1 -45.7100286203114 -9.199479012517664 -9.215245961933345 0 0 0
390 1 -44.813661578764574 -9.19990171617114 -11.822230662188828 0 0 0
391 1 -43.891369879792386 -6.872361579626769 -10.576915451319659 0 0 0
392 1 -40.0837155430676 -6.859137394004385 -5.288419739917257 0 0 0
393 1 -38.27497922159675 -6.8799150731214525 -10.534082254282723 0 0 0
394 1 -34.568801761696136 -9.043410310761963 -9.226771584959414 0 0 0
395 1 -33.633524127283714 -9.094967933201936 11.855507652018783 0 0 -1
396 1 -33.59595036745213 -6.793056060460572 -7.855984326053494 0 0 0
424 1 -94.26169530405402 -2.3150066179987263 -10.585266507491454 0 0 0
425 1 -92.35439501126214 -2.31505665299737 -7.935906797792161 0 0 0
426 1 -90.49638287968538 -2.3231922735552075 -5.2746025503541025 0 0 0
427 1 -86.7688958699153 -2.3182029347495074 -7.916003546170593 0 0 0
428 1 -80.25709957405495 -4.562900737339639 -6.62622189238418 0 0 0
429 1 -78.3987462319699 -4.570424099264017 11.838981564271837 0 0 -1
430 1 -77.41769413291631 -4.555732617790923 -6.619600225782482 0 0 0
431 1 -73.63768899240567 -4.590801251972579 -9.26035161007916 0 0 0
432 1 -70.87879430261592 -4.530811334274091 -9.275377482051411 0 0 0
433 1 -68.08987201639728 -2.3153113736793856 -5.300335145598385 0 0 0
434 1 -65.27813393285375 -4.5333462423459565 -9.306666990991328 0 0 0
435 1 -65.29750186799085 -2.225241470132282 -5.281525658922161 0 0 0
436 1 -60.59401570802525 -2.269224365424421 -10.559564993327122 0 0 0
437 1 -59.714299839669884 -4.529116327661114 -9.24782104618741 0 0 0
438 1 -54.09045182578158 -4.57899280640207 -9.30462216108575 0 0 0
439 1 -52.252708847324385 -4.578839648768927 -6.54555842490366 0 0 0
440 1 -48.55098860500199 -4.559868522437782 -9.246960733863629 0 0 0
441 1 -48.5574016190544 -2.2768507839328365 -5.219615093405736 0 0 0
442 1 -43.86958922776982 -2.2989196004040764 -10.555844475622186 0 0 0
443 1 -38.237379319921274 -4.552123977866032 -6.573480824081778 0 0 0
444 1 -35.437092744223584 -2.325329284865269 -10.503389791081972 0 0 0
445 1 -34.53621445051035 -2.31008269531398 -5.238230166040479 0 0 0
446 1 -32.66125982065286 -4.553085157072765 -6.573613709006226 0 0 0
23999 3 -53.17743606163083 -2.359982568727041 7.962523061675778 0 0 0
23998 3 -54.15620271289561 -4.540264044754025 6.656245113407053 0 0 0
909 1 -88.59396202967409 -43.42844946135063 -2.661870292523286 0 0 0
910 1 -86.72612634402273 -45.71630900937391 -4.01326515377176 0 0 0
911 1 -84.8414502471242 -45.716005930096664 -1.269826877903954 0 0 0
912 1 -82.00711025934102 -43.41928944672704 2.6744744441671884 0 0 0
913 1 -79.27541671844308 -45.65281192198708 -1.3251950599878217 0 0 0
914 1 -69.07911220087239 -43.45811707450542 -2.6299128628577737 0 0 0
23845 3 -69.95606500118978 -18.262749424844213 3.979913630587891 0 0 0
916 1 -67.12303516979694 -43.44354007722408 -0.024912296783677235 0 0 0
917 1 -46.54552428695926 -43.43219541487812 -2.6270443848590155 0 0 0
918 1 -38.19496212881278 -43.42949225588992 -2.6608911978053857 0 0 0
919 1 -37.238808350320035 -45.68293058775734 -1.340779814280456 0 0 0
951 1 -93.30679438730829 -38.80632652148044 2.679080835668783 0 0 0
952 1 -92.38039925402569 -38.83135186434926 0.013412879457064264 0 0 0
953 1 -86.72181853283155 -38.87475206086303 0.02917211253676122 0 0 0
954 1 -74.60420836017856 -41.16539055380408 1.2930431666653917 0 0 0
955 1 -73.71951805922475 -38.87497532642705 2.6568784329729276 0 0 0
956 1 -72.77771099551676 -41.23200809570667 -3.962213867835416 0 0 0
957 1 -70.95267634888268 -41.114566090072785 -1.2959374680595754 0 0 0
958 1 -69.03487894675168 -41.128921595022014 1.3027298658709743 0 0 0
959 1 -58.77117135033513 -41.18202716829119 -3.9041826746753285 0 0 0
960 1 -56.86208196630393 -38.90159748574473 2.624510472640754 0 0 0
961 1 -48.46835145476718 -41.116655136866946 -1.3086153617237049 0 0 0
962 1 -43.831506322625685 -38.84368505388076 -2.622241421318911 0 0 0
963 1 -41.98094531625836 -41.170918142958286 -3.933154319135271 0 0 0
989 1 -94.26338464000933 -36.53771766786874 1.332151837475278 0 0 0
990 1 -94.30340341182475 -34.24766666286684 -2.6142647546195583 0 0 0
991 1 -89.56426082118159 -36.596525574811295 -3.9656266581514945 0 0 0
992 1 -88.59433789669588 -36.533516031672306 1.304154612172054 0 0 0
993 1 -85.80115426638899 -36.55447607262273 1.320919892104195 0 0 0
994 1 -84.85697012008896 -36.5527871028552 -1.2652199237148505 0 0 0
995 1 -82.07570544432532 -36.545173195373316 -1.3287719296769787 0 0 0
996 1 -77.43077148184466 -34.267149579271404 -2.645313939331018 0 0 0
997 1 -66.28495495730542 -36.53983817928437 1.2823207718281946 0 0 0
998 1 -59.72250122190404 -36.590454375898425 -1.3045929091046702 0 0 0
999 1 -57.80243110649769 -36.573266339178325 1.3519108927365728 0 0 0
1000 1 -56.91978273495352 -34.26128973853436 2.5823448820902115 0 0 0
1001 1 -52.159896257822695 -34.29326867107723 -2.716028301742794 0 0 0
1002 1 -47.55004925548832 -36.61389610670429 -3.9664006906023284 0 0 0
1033 1 -94.29148519392561 -31.943721201637896 1.3084672521562766 0 0 0
1034 1 -91.44895842320761 -29.69358909921875 -2.6274465938826843 0 0 0
1035 1 -89.53209011018946 -31.96929613518315 -3.943511449308942 0 0 0
1036 1 -69.0566215051675 -29.75959502158451 -2.6652436754630084 0 0 0
1037 1 -63.425624427496274 -29.70883934592147 -2.661698120047907 0 0 0
1038 1 -57.8712530787368 -31.959027790721155 1.3185924071344477 0 0 0
1039 1 -53.09752864047903 -31.999631424335483 -3.933693609918574 0 0 0
1040 1 -51.296805814361356 -29.676256507900636 2.595001123679843 0 0 0
1041 1 -47.53180808398929 -32.05663547050133 -3.9181125313201264 0 0 0
1042 1 -43.83663248325168 -29.708399067995284 -2.60729706044979 0 0 0
1043 1 -35.40950151500619 -29.77089065909788 -2.6051873435512913 0 0 0
1070 1 -94.2419324730048 -27.472968277892114 1.304954446734845 0 0 0
1071 1 -91.45306739018712 -27.428442378053504 1.3252094644529517 0 0 0
1072 1 -90.53238197296731 -27.428220869761994 -1.3350804676031558 0 0 0
1073 1 -86.77354711778925 -25.120748234479404 -0.02014941461975006 0 0 0
1074 1 -83.98182049514664 -27.439840588537237 -3.9836186752777483 0 0 0
1075 1 -83.99186227710786 -25.093201937207347 0.03878521181876593 0 0 0
1076 1 -79.26770086526616 -27.424303811719913 -1.2960382717632868 0 0 0
1077 1 -79.27261296863918 -25.097322052823966 2.653797141331566 0 0 0
1078 1 -71.9207914396659 -27.432699916201024 1.3005370068785425 0 0 0
1079 1 -55.96896858227648 -27.409473111540983 -3.912341666062015 0 0 0
1080 1 -50.3216935076189 -27.42290285137905 -3.9030102668730153 0 0 0
1081 1 -42.91528619843152 -25.113984423072967 2.678147211942118 0 0 0
1082 1 -37.337490342815926 -27.457347633113034 -1.3364243750059526 0 0 0
1083 1 -36.332320015957215 -27.408181927464415 -3.9565537342070183 0 0 0
1120 1 -94.26026033715934 -22.823879975661324 1.3464908099238961 0 0 0
1121 1 -92.40065642614073 -20.54983525592658 0.006912131927899523 0 0 0
1122 1 -83.05167049367111 -22.80057850257948 1.3526721809482254 0 0 0
1123 1 -82.11240502835687 -22.854599607468465 -1.3376776586665322 0 0 0
1124 1 -76.53657669573336 -20.58601998803376 2.616322062344583 0 0 0
1125 1 -68.10753299415208 -20.517819857830737 2.66849166856297 0 0 0
1126 1 -63.36896042895988 -22.810182659373538 1.2962322684965528 0 0 0
1127 1 -60.61753196500365 -22.803648754091707 1.2948678440933037 0 0 0
1128 1 -55.987459753888324 -22.793941972036812 -3.9234205326728357 0 0 0
1129 1 -49.41850799184136 -22.812534678803463 1.3285667598381234 0 0 0
23997 3 -59.65910530730571 -2.3056574922451105 10.535578311479796 0 0 0
1162 1 -93.37680275008633 -18.281785406924257 -1.2768476829608417 0 0 0
1163 1 -92.34017277438855 -18.24575108274837 -3.953932687852298 0 0 0
1164 1 -91.40951235766288 -15.947418215323545 -2.6285554106848465 0 0 0
1165 1 -86.80119725259148 -15.953257412159921 0.008647611833135116 0 0 0
1166 1 -83.07126089344538 -15.99845098587705 -2.6439172000136217 0 0 0
1167 1 -81.20034354998965 -18.313183933436225 -3.9994670641838725 0 0 0
1168 1 -76.56612010523725 -18.343141588236996 -1.3466117455873334 0 0 0
1169 1 -75.5421461158243 -18.317639895120422 -3.9859568544151758 0 0 0
1170 1 -74.6443265799417 -18.294542716102214 1.3098926209925725 0 0 0
1171 1 -69.95622097125379 -18.286177207500636 -3.987042480176693 0 0 0
1172 1 -65.25959888181357 -15.952438293859181 2.6704345326670236 0 0 0
1173 1 -64.39466360858557 -18.218329413571823 -3.9623497735673032 0 0 0
1174 1 -57.87657811565476 -15.99476149736196 -2.551415228818204 0 0 0
1175 1 -55.026126594178194 -18.258838676478636 1.283286873943558 0 0 0
1176 1 -55.1010508938596 -15.97153987682523 -2.5898803505373813 0 0 0
1177 1 -53.16231575109691 -15.924017030764468 -0.0035823615697800903 0 0 0
1178 1 -52.238667297870855 -15.964564542645721 -2.6429572259871943 0 0 0
1179 1 -50.32337728414029 -18.241738614254086 -3.994247033448749 0 0 0
1180 1 -48.473989316348884 -15.942362555635505 2.655733161345214 0 0 0
1181 1 -47.56124232075462 -18.243924850385735 -3.968013723286518 0 0 0
1182 1 -41.99702129563356 -15.98680271579417 0.009419495677265743 0 0 0
1183 1 -39.15914175133579 -18.236456105027155 -3.951454113385232 0 0 0
1184 1 -39.171997965806575 -15.988017607800074 0.010655185100905129 0 0 0
1185 1 -38.270865728152145 -18.262699815518395 1.3799601559105579 0 0 0
1216 1 -92.31387496759197 -11.419161264159804 -0.026761515372824007 0 0 0
1217 1 -91.40209116315839 -11.462827107184232 -2.639513059693524 0 0 0
1218 1 -90.45576600026013 -11.419924017776978 2.6513224430238456 0 0 0
1219 1 -87.74087194025195 -11.39447760947202 2.6499280362382525 0 0 0
1220 1 -85.8622201261062 -13.685680351489118 1.2711200363407382 0 0 0
1221 1 -78.40337308451606 -11.429029576090677 0.003157936496618774 0 0 0
1222 1 -76.53520013072198 -11.419423795295302 2.711114402289054 0 0 0
1223 1 -75.60246020884026 -11.420949102807114 0.023660725966154317 0 0 0
1224 1 -71.80775143277485 -11.41198286239132 -2.632393108094174 0 0 0
1225 1 -68.06042154095658 -13.695049149208238 -1.3486210631537237 0 0 0
1226 1 -60.63481828795052 -11.392371431597482 -2.616796260553347 0 0 0
1227 1 -55.09753981854153 -11.373321797295574 -2.587719604884912 0 0 0
1228 1 -53.123757378181026 -13.699703209926753 -3.941816862482445 0 0 0
1229 1 -52.21279230190765 -13.678918281661836 1.330045444245112 0 0 0
1230 1 -50.375056347012965 -13.669780902516102 -4.010574506045364 0 0 0
1231 1 -48.413138329474585 -11.41884316674713 2.6413884098308937 0 0 0
1232 1 -44.800603010669576 -13.714602105371995 -3.9999446947132826 0 0 0
1233 1 -42.940236532177444 -11.43697908403663 2.690473162420421 0 0 0
1234 1 -40.13761464959618 -13.700913462497681 -1.3037321043264072 0 0 0
1235 1 -38.26182235624264 -11.370255305514263 -2.6383792112323867 0 0 0
1271 1 -76.4919621612094 -9.14260416722842 -1.3301216719530515 0 0 0
1272 1 -67.15253498386096 -9.116181871137421 -4.001367962438365 0 0 0
1273 1 -67.12607536959791 -6.783738650487756 -0.025880743534219874 0 0 0
1274 1 -62.43714811420033 -6.837688854901003 2.632851174950048 0 0 0
1275 1 -49.44585290185952 -9.108416450672259 1.3137067276983156 0 0 0
1276 1 -45.71429005856798 -6.873967021655915 2.6327643454261658 0 0 0
1277 1 -42.94935545642931 -6.871386158825679 2.6222007654024893 0 0 0
1278 1 -41.046827497975016 -9.140345557608057 1.3204077877036742 0 0 0
1279 1 -39.19268766775146 -9.077015702543292 -3.9876185380056857 0 0 0
1280 1 -37.325297730670805 -9.077848446458155 -1.3018959505059247 0 0 0
1317 1 -94.2001907193114 -4.606722886668592 1.308599903356832 0 0 0
1318 1 -91.38089623866514 -2.296348813662611 -2.6236663174175874 0 0 0
1319 1 -90.520277459623 -2.339714572092099 2.5714609563801147 0 0 0
1320 1 -80.23935740526507 -2.262140722773232 -2.6733967712079316 0 0 0
1321 1 -66.19474446599108 -4.554382048178923 1.297973436783323 0 0 0
1322 1 -62.43278786518194 -2.2480223872857295 2.6550161304342588 0 0 0
1323 1 -56.889846023035325 -2.295442667298552 2.6987412253698064 0 0 0
1324 1 -55.034211628741545 -4.596918180542708 1.3256270717719367 0 0 0
1325 1 -43.788407111993926 -4.581769696861585 1.32768334667327 0 0 0
1326 1 -40.99460134801953 -2.2780547723348903 -2.643181513061421 0 0 0
1327 1 -38.28441675206262 -4.53159977047244 1.3138193356734735 0 0 0
23844 3 -70.91360174485217 -15.996889997371245 10.523074746535173 0 0 0
23843 3 -73.71039305712074 -18.271476479790074 6.582315295877308 0 0 0
1832 1 -83.0460796204535 -43.45473231558665 5.279725221980176 0 0 0
1833 1 -82.05717229535173 -45.70707174167616 6.577148706066971 0 0 0
1834 1 -69.07983207601319 -43.454441276379704 5.3065351489924915 0 0 0
1835 1 -68.16234218885938 -43.42606720258045 10.58852902071527 0 0 0
1836 1 -58.76890150620978 -45.705849242541106 3.887396303963751 0 0 0
23842 3 -84.00289446221484 -18.275272537733304 3.940114641244838 0 0 0
23841 3 -90.50753194715544 -18.291325349680875 6.611480874805878 0 0 0
1839 1 -55.06696836304162 -43.40177329890832 5.2814222520535345 0 0 0
23840 3 -91.4505835646933 -16.012004396853904 5.305795065374802 0 0 0
23839 3 -94.21039263088667 -16.02263016376377 5.2425832154761665 0 0 0
1842 1 -43.79288725375875 -43.386529240580366 5.209872655720769 0 0 0
1843 1 -36.33469312877247 -43.39994427732433 7.883490868149721 0 0 0
23804 3 -35.52340783228136 -22.809957541425508 9.250983853043945 0 0 0
1873 1 -93.23867817290378 -41.12097144355187 6.590767396284132 0 0 0
1874 1 -92.3707089731301 -41.12580860253587 3.971280475042846 0 0 0
1875 1 -92.3828738882858 -38.82210405559586 7.967024525638504 0 0 0
1876 1 -80.23498685405436 -38.8699521000313 5.322370970454603 0 0 0
1877 1 -66.25600641410632 -41.138283904147414 9.229334916053208 0 0 0
1878 1 -60.59645554755523 -41.182923438718824 9.181657902924389 0 0 0
1879 1 -56.88076262545208 -38.91739198623266 10.504125804782586 0 0 0
1880 1 -55.02120995702008 -38.920614379397854 5.267177301615543 0 0 0
1881 1 -53.15289242118529 -38.92088391367521 7.880663245487728 0 0 0
1882 1 -52.23233771590113 -41.11355596369641 9.206304169235775 0 0 0
1883 1 -46.58518339778711 -38.911385452277514 5.223373060317499 0 0 0
1884 1 -43.77955249511074 -38.90124164932461 5.265286278351155 0 0 0
1885 1 -42.89158008554454 -41.14903569290599 6.5506981863407105 0 0 0
1916 1 -84.87997967356108 -34.317446705891285 10.6141387230548 0 0 0
1917 1 -83.92039939546666 -36.571374925895775 4.001165197771485 0 0 0
1918 1 -82.12431808905073 -34.29500319524979 10.546159375759874 0 0 0
1919 1 -81.16716277707587 -36.59419362341806 3.894126896642071 0 0 0
1920 1 -81.16378861668025 -34.28668454759452 7.93341726501291 0 0 0
1921 1 -74.64003753258113 -36.51348598666789 9.265360991735726 0 0 0
1922 1 -70.91865703153685 -36.548562871409736 6.572570944406756 0 0 0
1923 1 -67.21049920434656 -34.25247751174962 7.937606712088002 0 0 0
1924 1 -60.66866317960789 -34.278104696926434 5.298092609785247 0 0 0
1925 1 -57.82153565065484 -34.30667059136283 5.251910872452505 0 0 0
1926 1 -54.11960993952465 -34.287483341550285 10.530277340118133 0 0 0
1927 1 -50.337096200319415 -36.598861310028504 3.8824093744579695 0 0 0
1928 1 -50.36107081860032 -34.27772823001191 7.874984714901451 0 0 0
1929 1 -34.48325559064417 -36.589565279345365 6.598337954746075 0 0 0
1930 1 -33.58163492486206 -36.575501319547776 3.9936396165326205 0 0 0
1961 1 -85.82206182642314 -31.963733451430336 9.225163260524727 0 0 0
1962 1 -83.05236075266824 -31.987974677134375 9.270859265470275 0 0 0
1963 1 -80.19007658191603 -29.68217437213432 5.264828721555727 0 0 0
1964 1 -77.4058334452748 -29.717726590755007 5.275979755156179 0 0 0
1965 1 -68.15437786894837 -29.770949635201404 10.550173540825377 0 0 0
1966 1 -57.915226500964124 -29.64965928922879 5.269527603799201 0 0 0
1967 1 -56.92202051540066 -31.94031031178743 6.5970707505392525 0 0 0
1968 1 -54.12023130712392 -32.016729195424325 6.5905411612924105 0 0 0
1969 1 -53.19104850284087 -29.680903745436847 7.920733874428102 0 0 0
1970 1 -42.860707026691635 -32.017560679488035 6.572306839683428 0 0 0
1971 1 -41.980841058330554 -29.669187150006785 7.918990602835372 0 0 0
2006 1 -92.32725241644367 -27.38251578496225 3.949510949829431 0 0 0
2007 1 -90.47632483319579 -25.09526822341952 10.510578647911206 0 0 0
2008 1 -89.54115109997517 -27.40181015086644 4.011287242458442 0 0 0
2009 1 -83.0529249010483 -27.418833010501277 9.252450897982435 0 0 0
2010 1 -76.48038938580243 -27.461103820263656 6.5224851258085685 0 0 0
2011 1 -75.52873137888369 -27.389135163744296 3.943499967710311 0 0 0
2012 1 -74.5901422635744 -27.436686043432356 9.223095519489469 0 0 0
2013 1 -71.89765626911851 -27.476221391061006 9.220993489751034 0 0 0
2014 1 -70.90986229850843 -27.42108045635596 6.652569662341019 0 0 0
2015 1 -70.02950982138769 -25.129268216623437 7.9371919419709585 0 0 0
2016 1 -68.08294702572184 -25.092929411840526 10.597541300886927 0 0 0
2017 1 -58.78647862961272 -25.092882030194474 7.919536170175501 0 0 0
2018 1 -55.015021789986704 -27.352237226900346 9.220957880354124 0 0 0
2019 1 -50.374726657667516 -25.04122118757493 7.878267642321386 0 0 0
2020 1 -49.474672502715876 -27.332643488280876 9.26679737025454 0 0 0
2021 1 -46.621878473904985 -25.099749392275214 5.308039157592233 0 0 0
2022 1 -38.283188733266854 -27.43397499468027 9.221412524659403 0 0 0
2023 1 -35.49098503821807 -25.176968822803936 5.258800801659344 0 0 0
2024 1 -34.54601616677518 -25.11027944203439 10.58295337100347 0 0 0
2052 1 -88.6579393036735 -20.614105178329694 5.362533354990983 0 0 0
2053 1 -83.04762479091957 -22.87954964217596 9.26444843591176 0 0 0
2054 1 -81.17812490269303 -20.58231431193511 7.911846883693176 0 0 0
2055 1 -78.40654380036534 -22.89976294756196 3.9421044230497895 0 0 0
2056 1 -77.4403195451258 -22.886229791056405 9.244838615021497 0 0 0
2057 1 -76.53081333307247 -22.860323315317277 6.609501386052504 0 0 0
2058 1 -70.00321197596726 -22.820960360965557 4.01071855482396 0 0 0
2059 1 -67.18112337670706 -22.853330876228195 4.028601395601489 0 0 0
2060 1 -64.35296217028005 -22.86223326314766 3.9555683452838313 0 0 0
2061 1 -64.37474495149996 -20.553321381617966 7.936494674004042 0 0 0
2062 1 -59.68228199395114 -22.809776395523986 6.62666952375606 0 0 0
2063 1 -57.815202019962314 -20.485409275097638 5.242936736412567 0 0 0
2064 1 -54.96147376643068 -22.82754443571335 9.17535879895523 0 0 0
2065 1 -54.96730043625342 -20.55189860644863 5.265490593897866 0 0 0
2066 1 -54.09393505713845 -20.585386275426394 10.536979838781381 0 0 0
2067 1 -50.34886242712657 -20.559945633060174 7.917048940873229 0 0 0
2068 1 -49.43129280431885 -22.804883663543503 9.234626636894482 0 0 0
2069 1 -47.52147460598888 -22.84892802164376 3.993148604928507 0 0 0
2070 1 -46.62259236252262 -20.571238520580852 5.3387564114904755 0 0 0
2071 1 -43.886231856182754 -22.799380360508046 9.253184082063107 0 0 0
2072 1 -41.99657199739665 -22.820270794858985 3.930162197812985 0 0 0
2097 1 -94.25330584765187 -18.32378506163729 9.257245138014738 0 0 0
2098 1 -89.56821858684268 -18.312385500622046 3.9922594837422807 0 0 0
2099 1 -85.84790223640147 -18.32110133576679 9.251709997521015 0 0 0
2100 1 -82.10108752424084 -16.003377434450925 10.582255567966467 0 0 0
2101 1 -69.91066896131018 -16.03311218602435 7.8981435757846015 0 0 0
2102 1 -67.13166038830187 -16.006326503588905 7.890763821029836 0 0 0
2103 1 -66.26645320431258 -18.249770769503534 9.239270314856473 0 0 0
2104 1 -56.870944108522586 -18.27305431503261 6.616718397154923 0 0 0
2105 1 -51.322466338091 -18.241488546141753 6.629278085145337 0 0 0
2106 1 -50.35212974398825 -15.91880020512344 7.929318543559486 0 0 0
2107 1 -48.44388233616743 -15.970562150528792 10.600526374188313 0 0 0
2108 1 -45.686442639594325 -15.92231232096481 10.532525103920989 0 0 0
2109 1 -42.97040864670863 -18.31187634601777 6.662996659397084 0 0 0
2110 1 -41.07004873554385 -18.27706524034887 9.264941643366871 0 0 0
2111 1 -37.379748146661484 -15.949466054290657 10.526449484254709 0 0 0
2112 1 -34.63010777852621 -15.97380529616061 10.544353824834381 0 0 0
2113 1 -32.66392980923294 -15.910847930367957 5.203825070502127 0 0 0
2145 1 -95.15691992267995 -13.74351177980255 3.9102898680761875 0 0 0
2146 1 -89.5762539653723 -13.68113850493937 3.9930165480304396 0 0 0