# Bcc oriented X=[-111] Y=[101] Z=[12-1].

24480 atoms
3 atom types

-95.18727654954 95.18727654954 xlo xhi
-45.71769755913 45.71769755913 ylo yhi
-11.877806246622 11.877806246622 zlo zhi
0 0 0 xy xz yz

Masses

1 92.908 #Nb
2 180.95 #Ta
3 50.941 #V

Atoms # atomic

1 1 -94.21219578675812 -43.425330661831 -10.529076973940636 0 0 0
2 1 -92.33894344570912 -45.70502417968533 -11.875025552128474 0 0 0
3 1 -89.53916684190517 -45.64346238852178 -11.860595647397574 0 0 0
4 1 -87.6857942729976 -43.35051227143136 -5.303798076797455 0 0 0
5 1 -86.77697638809323 -43.37927188070358 -7.9129025113759095 0 0 0
6 1 -82.12676664549613 -45.67876349232615 -9.244969347902504 0 0 0
7 1 -82.1088581070844 -43.43722189189344 -5.24914020693525 0 0 0
8 1 -80.2784495411797 -43.403499705203004 -10.596211472511103 0 0 0
9 1 -72.7829088025382 -43.480797324978944 -7.919902324048888 0 0 0
10 1 -61.498028689532234 -43.414947518928116 -7.928843855084469 0 0 0
11 1 -59.57186029482592 -43.397710080908915 -5.289323958480856 0 0 0
12 1 -54.962605921660966 -45.62856720568093 -6.559847813646868 0 0 0
13 1 -42.011961758184334 -45.66914320750392 -11.854671361196583 0 0 0
23909 3 -69.97589961563047 -11.377041094176889 7.95777522350156 0 0 0
15 1 -37.30721937226128 -43.451558269875754 -5.2864812656258815 0 0 0
24018 3 -37.300546580538104 -4.601135924705538 6.611080646616671 0 0 0
45 1 -94.17250011767622 -41.07535346710567 -6.577838013692568 0 0 0
46 1 -89.50540917207981 -41.12532452932158 11.849540338597382 0 0 -1
47 1 -84.87671356754936 -38.795711122291905 -5.277281249597398 0 0 0
48 1 -77.45201987427555 -38.834748121181754 -10.551213718169935 0 0 0
49 1 -72.75592601128001 -41.127157675422794 -11.849698336679143 0 0 0
50 1 -72.78613079165538 -38.8538466277084 -7.953521492181576 0 0 0
51 1 -69.99680031269055 -41.199731734792934 -11.86266089418403 0 0 0
52 1 -66.21898483377095 -41.2010139736261 -6.598446410962178 0 0 0
53 1 -64.2863952534441 -41.16151615614584 -11.842956616737169 0 0 0
54 1 -55.835367383115575 -38.81228455165527 -7.92027006646449 0 0 0
55 1 -51.27017053924403 -41.09095620512552 -9.176426203389246 0 0 0
56 1 -44.75782365542684 -38.81790043031538 -7.976301215544581 0 0 0
57 1 -42.909270596528735 -38.81410472725909 -5.278909075746651 0 0 0
92 1 -94.18635845399396 -34.2313012707225 -10.52972047533944 0 0 0
93 1 -92.31012847264238 -36.55624878677353 -11.83349825814269 0 0 0
94 1 -89.53687363427437 -36.55263247147369 -11.833847429567498 0 0 0
95 1 -69.96495186774064 -34.26012850301679 -7.930550330362186 0 0 0
96 1 -67.18474583839317 -36.549620944830934 -11.86857512803126 0 0 0
97 1 -60.48760229473245 -34.21524230451897 -10.552501167929815 0 0 0
98 1 -58.61880309511703 -34.24949629813799 -7.925441444109289 0 0 0
99 1 -57.786963288428446 -34.24687784509297 -10.533263320990274 0 0 0
100 1 -52.21989529543883 -36.58161847481979 -6.618152516711702 0 0 0
101 1 -46.68504092506881 -36.50765342696642 -6.637236101758721 0 0 0
102 1 -41.03272046650597 -36.48954925268774 -6.645122033292603 0 0 0
103 1 -39.27793207635746 -36.52126546736015 -11.828537869563952 0 0 0
131 1 -86.76409414314057 -31.997521285051143 11.84338634799677 0 0 -1
132 1 -76.49340543832092 -29.68626886054095 -5.245384980407669 0 0 0
133 1 -73.74875231189802 -31.94430501514603 -9.282472786442781 0 0 0
134 1 -73.7438905775018 -29.682332136061966 -5.308786460124919 0 0 0
135 1 -67.1556028952486 -29.665297153068238 -7.958024986787185 0 0 0
136 1 -57.776626910282765 -31.99093432518592 -6.63606842631774 0 0 0
137 1 -56.831567015030636 -29.7598250712683 -5.294659383283127 0 0 0
138 1 -44.74013913547851 -29.73085520422077 -7.9401773813663485 0 0 0
139 1 -37.42835352051314 -31.984751829258975 -9.20824524921645 0 0 0
140 1 -36.41035133200803 -29.737711361003488 -7.847720044607315 0 0 0
141 1 -32.69838382408715 -29.792257926203792 -10.521770217104125 0 0 0
172 1 -85.80286905353165 -25.07555691714649 -10.548173774830397 0 0 0
173 1 -83.9661198928972 -25.10632405588672 -7.907572587081255 0 0 0
174 1 -83.06302336466621 -27.32847416780948 -6.598070027371116 0 0 0
175 1 -71.83631834395366 -27.3707508620722 -6.579691216160967 0 0 0
176 1 -71.8244646682112 -25.12419869534269 -10.569040081457828 0 0 0
177 1 -60.52090603579988 -27.47313981851385 -6.598922653422195 0 0 0
178 1 -58.688100950567396 -25.159535266167595 -7.957410730217928 0 0 0
179 1 -57.736608905162186 -27.479076026305812 -6.631734247818573 0 0 0
180 1 -53.14539284226352 -27.42498744347417 11.868545126244975 0 0 -1
181 1 -50.3193735835738 -25.19892896163999 -7.902871889019364 0 0 0
182 1 -49.39985625073799 -27.51382603188612 -6.604107465829975 0 0 0
183 1 -47.56210991175784 -27.52824624423699 -11.854416363004663 0 0 0
184 1 -46.59559764818161 -25.219193247508645 -10.544544881362203 0 0 0
185 1 -43.76956548590585 -27.485098795797672 -6.5796356193375765 0 0 0
186 1 -41.986436147880255 -27.508494347955704 -11.79895879554546 0 0 0
187 1 -39.21645733790259 -25.15728658839937 -7.851525977548076 0 0 0
188 1 -36.404383506521924 -25.208591100583124 -7.793565955411984 0 0 0
189 1 -35.460200791149035 -27.46112242577374 -6.500289930754909 0 0 0
190 1 -33.61547030576274 -25.118932347429343 -7.851457220119797 0 0 0
191 1 -32.66408418405161 -25.164593292641356 -10.52129986696442 0 0 0
24017 3 -39.201129182959285 -4.619194102916929 3.914233411340893 0 0 0
222 1 -94.19426989416141 -22.75565058014837 -6.618229954776247 0 0 0
223 1 -93.26628295713269 -22.736142128478292 -9.245330622605783 0 0 0
224 1 -90.49538872177027 -20.48829417290175 -5.251291685471045 0 0 0
225 1 -89.62815587282869 -22.765800951531478 11.876694441963735 0 0 -1
226 1 -86.81102129229126 -22.813690811028387 -11.862073747217684 0 0 0
227 1 -84.00421234256052 -20.602156397608567 -7.889981185521972 0 0 0
228 1 -77.38625503686993 -20.567492877883467 -10.56589045590725 0 0 0
229 1 -73.71157920943386 -22.81915604102257 -9.280335376523867 0 0 0
230 1 -69.96638345417212 -22.8245118439896 -11.855999614360082 0 0 0
231 1 -69.04104040283805 -20.571594858176983 -10.54971746757314 0 0 0
232 1 -64.30487361375204 -22.838443848672473 -11.877562845655744 0 0 0
233 1 -59.718679838540545 -20.54007839946141 -5.327479281733711 0 0 0
234 1 -56.899498205659015 -20.605483439111406 -5.316337459904186 0 0 0
235 1 -55.883512169113416 -20.608084481768437 -7.9679142213996865 0 0 0
236 1 -55.0735542475011 -20.646891487818454 -10.571815824540831 0 0 0
237 1 -47.554213980354895 -22.9621391433507 -11.849511820531507 0 0 0
238 1 -39.129831913415124 -20.62543903978459 -7.846200681813444 0 0 0
239 1 -38.27420544532486 -22.936894959004736 -6.533672611864362 0 0 0
240 1 -33.571259631099416 -22.840335533392416 -11.82709838344962 0 0 0
269 1 -90.54506312925457 -18.26796332886224 -9.249563302126834 0 0 0
270 1 -87.74634957823996 -18.2706110251621 -9.236303061236082 0 0 0
271 1 -86.81707727923657 -18.234502627341225 -11.847793412988963 0 0 0
272 1 -84.91226118995314 -16.03049168297386 -5.2340404204047575 0 0 0
273 1 -81.14021512932575 -15.977836439612481 -7.9367978907566705 0 0 0
274 1 -78.31711229791654 -18.302877137095418 11.874667276241219 0 0 -1
275 1 -73.65793533147996 -18.268670744434246 -9.24908880249554 0 0 0
276 1 -65.25420567465918 -15.973948214401371 -5.327960542330434 0 0 0
277 1 -59.67610435801794 -18.28247370833705 -9.245764763526996 0 0 0
278 1 -57.80726989395966 -18.250853542211733 -6.6090420606824765 0 0 0
279 1 -56.91785777713043 -15.998011096063404 -5.302172800895555 0 0 0
280 1 -55.92468757665778 -18.3536349249087 -11.815823146522069 0 0 0
281 1 -53.16320208938648 -18.347492502844265 -11.86409434906965 0 0 0
282 1 -48.4579432308915 -18.324190182830364 -9.19385010929669 0 0 0
283 1 -47.52167796367734 -16.02349988785671 -7.959211040127128 0 0 0
284 1 -46.565098718518755 -16.008016731626785 -10.541395165377837 0 0 0
285 1 -40.99236905220357 -18.363684179525116 -6.531345223483617 0 0 0
286 1 -38.22482965803903 -18.285299516600425 -6.633133118258571 0 0 0
327 1 -90.52745698892754 -13.79096391591175 -9.272544177768523 0 0 0
328 1 -83.97732999704844 -13.694690202476046 -11.867998584632284 0 0 0
329 1 -82.08986106113079 -13.68629981004731 -9.20218658396803 0 0 0
330 1 -78.2922554537828 -11.419685670245116 -7.899465922808751 0 0 0
331 1 -75.52627059442032 -13.681879441606583 11.844241161337894 0 0 -1
332 1 -70.86431172229945 -13.673675964367668 -9.225338062440896 0 0 0
333 1 -65.30756833550574 -13.709521036354047 -9.226242785501492 0 0 0
334 1 -65.24955322554256 -11.479975212323374 -5.273579842035213 0 0 0
335 1 -64.33862914036715 -13.687132266540786 -11.831946230269486 0 0 0
336 1 -60.64305154697792 -11.512155354811725 -10.537990578018647 0 0 0
337 1 -58.74180403841718 -11.492011196583341 -7.884451859620489 0 0 0
338 1 -53.10438171800043 -13.713251595136192 -11.81447777788135 0 0 0
339 1 -52.18282163879565 -11.443743124069833 -10.491644132119726 0 0 0
340 1 -46.64267817926635 -13.786982006086465 -6.638569523161315 0 0 0
341 1 -43.85636190989701 -11.492663634321445 -10.536167835467515 0 0 0
342 1 -41.93139019928024 -11.529591494415932 -7.905391066476685 0 0 0
343 1 -38.21795018805766 -11.555422767274308 -10.593012647036453 0 0 0
365 1 -94.189966003425 -9.18923528575396 -6.584341883393365 0 0 0
366 1 -93.27731523145432 -6.828865843166447 -5.258748253756728 0 0 0
367 1 -91.4116033740004 -9.164463003999053 -6.599309707727484 0 0 0
368 1 -91.4250901052406 -6.931078548819578 -10.576628227169323 0 0 0
369 1 -89.54585271692943 -6.851643121595167 -7.909999108886977 0 0 0
370 1 -85.83872584888545 -6.869650387838277 -10.575062626028295 0 0 0
371 1 -81.13093132056228 -6.830055132793177 -7.9024422148652445 0 0 0
372 1 -72.72315454489944 -6.944654624842848 -7.872058675688118 0 0 0
373 1 -69.07736654796818 -9.236046303089765 -6.625791589327875 0 0 0
374 1 -67.17135256952696 -6.973221583154448 -7.952684743433584 0 0 0
375 1 -57.803337210499414 -9.146975179366628 -6.574108318990127 0 0 0
376 1 -55.01630856102809 -6.885172057458675 -10.552640730747832 0 0 0
377 1 -53.1422329850172 -9.232173027060192 -11.848277394353593 0 0 0
378 1 -53.16154342336781 -6.869784974036413 -7.878827556238344 0 0 0
379 1 -44.75924495822892 -6.89572250869513 -7.908931063479988 0 0 0
380 1 -43.85776723227624 -6.908925822990319 -10.523694153771164 0 0 0
381 1 -40.091418116837566 -6.904365147122498 -5.2680015897787 0 0 0
382 1 -36.292738979136786 -9.19542257934637 -11.874825297423843 0 0 0
383 1 -34.465298411538754 -6.916160765570453 -5.349102524199818 0 0 0
407 1 -85.7826972132388 -4.639192303397692 -6.593772332040388 0 0 0
408 1 -77.42430532767125 -2.3504567822518894 -10.56358226493548 0 0 0
409 1 -69.04655793799822 -2.325331894258113 -10.540910352597272 0 0 0
410 1 -62.529928660278294 -2.3622672263221745 -5.284523181500495 0 0 0
411 1 -58.759302406997946 -4.588580696849235 -11.866570675111214 0 0 0
412 1 -53.15085780623721 -4.582156010722684 -11.870260692734673 0 0 0
413 1 -48.501427986843765 -4.583663889467722 -9.217383852909213 0 0 0
414 1 -44.787816915137036 -2.2938114639753096 -7.92301641699855 0 0 0
415 1 -42.90530796896759 -4.591295756975043 -9.251520119759796 0 0 0
416 1 -40.98198812726142 -4.588511377667373 -6.588875006630218 0 0 0
417 1 -40.09350737462026 -4.598708541575853 -9.234972469967285 0 0 0
418 1 -35.43147428909422 -4.6335288710410865 -6.6369190894776064 0 0 0
419 1 -33.579731803878104 -2.274919390470785 -7.958858624550476 0 0 0
854 1 -90.51789853114535 -45.69895861171529 -1.319113140504383 0 0 0
855 1 -77.47212231982935 -45.67333852337433 1.3244764921485324 0 0 0
856 1 -62.496439579501796 -45.65643092183729 -1.363059463443399 0 0 0
857 1 -61.53693865155749 -43.43451181656229 0.0331521906224701 0 0 0
858 1 -49.4768568895009 -45.627277227048204 1.3627788234211842 0 0 0
859 1 -45.67172774119711 -45.640578606321554 -1.317811310333786 0 0 0
860 1 -37.31297340882214 -43.43572893180411 2.6360481982602018 0 0 0
23908 3 -71.78708432176539 -13.64274422859674 9.265831650535397 0 0 0
24016 3 -41.97270515669245 -4.610234274363776 3.9524790545029322 0 0 0
898 1 -95.11989102811508 -38.838796995136065 -0.08465547580070343 0 0 0
899 1 -94.19206894734636 -38.828372970667445 -2.6821922021127804 0 0 0
900 1 -86.7406516329762 -38.86673893617407 -0.040605024001179046 0 0 0
901 1 -72.80754075264822 -38.8234980445786 0.03527692146301753 0 0 0
902 1 -69.07756400509402 -41.09152512751358 1.3426799151725195 0 0 0
903 1 -65.25448641520576 -38.7794307482632 2.6375054933867474 0 0 0
904 1 -63.35318504463615 -38.83937050039758 -2.616376026760273 0 0 0
905 1 -47.58914498530997 -41.04754560160911 -3.9845483104027224 0 0 0
906 1 -41.95707720104864 -41.13467653740206 -3.941214345898648 0 0 0
907 1 -40.13349337412472 -38.77691938856914 2.6932530362905585 0 0 0
908 1 -34.51584626988385 -41.13874395164861 -1.3363490520456534 0 0 0
936 1 -92.32019113323172 -34.26679681087701 -0.07111938785158856 0 0 0
937 1 -88.59848289984429 -34.28905609643397 -2.6514417631769174 0 0 0
938 1 -85.88267182948549 -36.61755193150495 1.316712867410084 0 0 0
939 1 -83.99016571812375 -34.33495185250183 -0.013183145412961395 0 0 0
940 1 -83.09603602926393 -36.57438232841455 1.319487229617657 0 0 0
941 1 -77.4576166110274 -34.27100684053198 -2.632770989984243 0 0 0
942 1 -72.81390783579464 -36.60700034901006 -3.9677781586355403 0 0 0
943 1 -72.78304294645245 -34.2857783954727 0.020611742057235816 0 0 0
944 1 -67.14249270367473 -36.563361554478334 -3.943953873715772 0 0 0
945 1 -61.44884522647529 -36.52211642005331 -3.984734595778039 0 0 0
946 1 -60.56667065608833 -34.301799611201105 -2.6183347678623434 0 0 0
947 1 -56.78694722921848 -36.54750017898378 -1.320304302742116 0 0 0
948 1 -50.313100319335454 -34.25162568099893 -0.04673634780629321 0 0 0
949 1 -49.377848698501275 -36.536271556559285 1.2738967148975533 0 0 0
950 1 -48.45837130353712 -34.23918917797707 2.6688102579541315 0 0 0
951 1 -44.787755164001496 -36.50569093366899 -3.91357561127057 0 0 0
952 1 -43.89372667325919 -36.511793094581215 1.3926098343821227 0 0 0
953 1 -43.89126023016054 -34.249156829220254 -2.6155184711266735 0 0 0
954 1 -42.93163229018359 -34.265772373522516 2.6707271705621345 0 0 0
955 1 -37.33698344182581 -36.54729007106008 -1.3288450744383962 0 0 0
956 1 -36.40497325128615 -36.52120773105366 -3.978700345894481 0 0 0
957 1 -35.443598776209726 -34.21223998772321 -2.599251513318597 0 0 0
990 1 -95.14056609071733 -32.03902889624957 -3.937700611207574 0 0 0
991 1 -92.34003029104917 -32.012736389971934 -3.9641606833798164 0 0 0
992 1 -91.37564880300818 -29.710905111161956 -2.63438416918685 0 0 0
993 1 -89.56595489526435 -32.06457654102825 -3.9899625062823896 0 0 0
994 1 -79.3137227187796 -29.70605256967691 2.6199873874943833 0 0 0
995 1 -78.32750537235947 -29.653667627677763 0.031352921706041315 0 0 0
996 1 -72.7873545112265 -29.702694492911768 0.002583979566836092 0 0 0
997 1 -71.87584030055443 -29.65016251459155 -2.622324509873497 0 0 0
998 1 -63.37310722762635 -29.626932556853387 -2.638471557318706 0 0 0
999 1 -62.43526010807981 -31.900130964835768 -1.309626050967248 0 0 0
1000 1 -61.50146907747483 -32.033978441679636 -3.958969903517753 0 0 0
1001 1 -59.663671013687875 -29.66198418901327 2.6540475454218484 0 0 0
1002 1 -51.22058028763286 -32.003914114185875 -1.3377924276668 0 0 0
1003 1 -47.506836955836654 -29.811962189725623 0.03412320659738377 0 0 0
1004 1 -41.97696375414369 -29.72193769437213 0.01878471838978868 0 0 0
1005 1 -38.28803344006042 -31.93816287205295 1.263016536409781 0 0 0
1006 1 -37.29551598640134 -29.72789930452109 2.5862781423870285 0 0 0
1007 1 -32.68702019295242 -29.700846074062586 -2.687421518002443 0 0 0
1033 1 -87.67735392109944 -25.03661267101588 2.5324300351724087 0 0 0
1034 1 -83.0848374047345 -25.09841757750571 -2.6354491523083414 0 0 0
1035 1 -81.16257376305833 -27.40545256761171 -3.972244003497667 0 0 0
1036 1 -78.38620548450226 -25.152975845264354 -0.0014698129425010364 0 0 0
1037 1 -71.87262444026912 -27.451681446653485 1.3489961611527637 0 0 0
1038 1 -68.02971050990243 -27.39942963249405 -1.327681177780926 0 0 0
1039 1 -65.24935679506677 -25.106476307274566 2.558009636117246 0 0 0
1040 1 -57.79972612228212 -27.44141117379302 1.3185170539941335 0 0 0
1041 1 -56.900766355701435 -27.41016721723299 -1.345753816276467 0 0 0
1042 1 -53.12890062927373 -27.504430230716608 -3.9683525681294123 0 0 0
1043 1 -50.321939702541876 -25.223548656858068 -0.04450786966261333 0 0 0
1044 1 -46.61544632972811 -27.54691791624332 1.3683200613889959 0 0 0
1045 1 -40.07880144716847 -25.25501874220673 2.620360405494951 0 0 0
1046 1 -37.27521643568148 -25.18158104691145 2.5503875450925104 0 0 0
1047 1 -34.61704136828253 -27.434376151243132 -1.3306648210135172 0 0 0
1048 1 -32.68984983196321 -27.45573872624296 1.2934419174476197 0 0 0
1078 1 -89.51765195199225 -20.51235117992618 -0.06330685019018212 0 0 0
1079 1 -86.7232122465394 -22.8313486762881 -3.9159647633758503 0 0 0
1080 1 -76.5468506034115 -20.571986852125416 2.6129879579100805 0 0 0
1081 1 -74.6159693804985 -20.492068519158927 -2.630082738516016 0 0 0
1082 1 -71.82295665057171 -22.831641086650894 1.2868679872928972 0 0 0
1083 1 -71.83598042617623 -20.545051382553137 -2.630249395361643 0 0 0
1084 1 -66.19483518109129 -22.830599489934094 1.3493799936573811 0 0 0
1085 1 -66.2261875564454 -20.53677778117723 -2.6534595921446957 0 0 0
1086 1 -60.63747677027547 -22.862597987803625 1.3319859925482618 0 0 0
1087 1 -60.641957524460054 -20.588620581823335 -2.6475311981812766 0 0 0
1088 1 -55.91402462014387 -22.873348053524687 -4.007625409290934 0 0 0
1089 1 -55.9112256628207 -20.596696236783202 0.02580105533720456 0 0 0
1090 1 -54.07017677047574 -22.913044877980667 -1.3379964703018565 0 0 0
1091 1 -50.33675274944252 -22.932697731108295 -3.9939693628193336 0 0 0
1092 1 -50.33399348921398 -20.642650826905776 -0.0035200793272895936 0 0 0
1093 1 -49.41796610004489 -22.959125272913784 1.3458145642424224 0 0 0
1094 1 -43.84022627710824 -20.6551864080222 -2.653167396709044 0 0 0
1095 1 -34.4468664178586 -20.64105393761175 2.6638233394023594 0 0 0
1133 1 -90.47199107493032 -16.039308898753497 2.5429637244303454 0 0 0
1134 1 -84.94897800758437 -16.001777617645487 2.5643829120342243 0 0 0
1135 1 -83.07742451828955 -16.032647499536843 -2.59933708266186 0 0 0
1136 1 -77.4208419808144 -18.26671736816778 1.2736576356915617 0 0 0
1137 1 -76.48394692104681 -15.956178044079905 2.644067306727232 0 0 0
1138 1 -72.74397948334051 -15.953431603873067 -0.08832628733132175 0 0 0
1139 1 -69.04424036208658 -18.273267941368346 1.2909475047654375 0 0 0
1140 1 -68.11560099273218 -18.21256310451657 -1.317189233359823 0 0 0
1141 1 -64.32791120170947 -18.180323007035152 -3.9436446338731947 0 0 0
1142 1 -60.637760651379374 -18.285455290871024 1.336602311705482 0 0 0
1143 1 -56.93132418837314 -16.02171280082344 2.7275177947278078 0 0 0
1144 1 -51.31370488341267 -16.078762463430685 2.676828187483462 0 0 0
1145 1 -50.28400136752266 -18.34407538771849 -3.995985633513185 0 0 0
1146 1 -47.50395911768871 -18.408066581535934 -3.923274592931432 0 0 0
1147 1 -41.90476116359823 -16.08411078509621 0.013157577515523045 0 0 0
1148 1 -39.17379481498426 -16.0328069168707 -0.040890352810770025 0 0 0
1149 1 -37.27127323067424 -18.307186224103738 -1.368024214709795 0 0 0
24015 3 -47.58966203285783 -2.2787401201899584 7.945098727317816 0 0 0
1177 1 -94.15041091122391 -13.746908186373595 1.2881362415597053 0 0 0
1178 1 -83.05678686255264 -11.412385736464955 -2.6272766436547847 0 0 0
1179 1 -69.952151361087 -11.434790431538339 -0.029770343404036836 0 0 0
1180 1 -61.60573366083159 -13.751084765493715 -3.9922184182744243 0 0 0
1181 1 -58.7814817532532 -11.488768837975115 0.020536605084203075 0 0 0
1182 1 -53.164411230310755 -11.426732495695255 -0.005737199310962282 0 0 0
1183 1 -47.566132242941585 -11.426907051898077 0.005626117173687106 0 0 0
1184 1 -45.68413432718217 -11.44355046449499 2.6655734346549274 0 0 0
1185 1 -40.01392943175413 -13.745629821922488 -1.3121340692157197 0 0 0
1186 1 -39.133926014699746 -13.789104025994586 -3.9477146489585193 0 0 0
1187 1 -39.143116821933816 -11.504797631006866 -0.013084795183830877 0 0 0
1188 1 -32.63338678619475 -13.72613743528758 1.3312620274163702 0 0 0
1189 1 -32.57495030997468 -11.453696332244412 -2.651641028327724 0 0 0
1224 1 -94.14254719544519 -6.833840810117678 -2.6697582800348307 0 0 0
1225 1 -93.17819133776713 -6.8962803248168285 2.654935842841672 0 0 0
1226 1 -90.43319291787864 -9.140180237545408 -1.303804837568924 0 0 0
1227 1 -90.4569670070984 -6.876825727081439 2.6397683630580406 0 0 0
1228 1 -85.75288960313776 -6.856514957870829 -2.6549882757272325 0 0 0
1229 1 -82.09660184385137 -9.092267951949268 -1.3228379458159267 0 0 0
1230 1 -78.39967520119801 -6.880850895263627 -0.030338223563385114 0 0 0
1231 1 -77.39488442075407 -6.863057283601037 -2.6518906381763987 0 0 0
1232 1 -76.4217322819308 -9.134918560478972 -1.3777349977512152 0 0 0
1233 1 -70.93647778351482 -9.182088816347168 -1.335959010831619 0 0 0
1234 1 -59.71692408605749 -6.903372510212044 2.7238264108387433 0 0 0
1235 1 -58.75696589409609 -6.890549588549526 0.06777924475422736 0 0 0
1236 1 -57.8225633462149 -6.876603406448595 -2.6657180809659504 0 0 0
1237 1 -44.782039441552946 -9.198809260134574 -3.936727857499454 0 0 0
1238 1 -37.34200610581245 -6.9251316596411385 2.626696686094622 0 0 0
1266 1 -80.29325778003704 -4.576111498676937 1.338350947438851 0 0 0
1267 1 -78.3609991230948 -2.3079857354550057 -0.040818839578445676 0 0 0
1268 1 -64.3300250453748 -2.288235382569873 -0.002446366093208141 0 0 0
1269 1 -51.235005910968155 -4.493306840729453 -1.2976219957562556 0 0 0
1270 1 -46.66062727625381 -2.274373497868652 -2.5388344550788062 0 0 0
1271 1 -44.802023474027344 -2.295344660259012 0.04784939628677165 0 0 0
1272 1 -38.25364090534834 -2.307618343946345 -2.6530673267105556 0 0 0
1766 1 -87.65236443154102 -45.67591741482452 6.5284880796232585 0 0 0
1767 1 -83.99088884315796 -45.650798220559835 3.99372594950564 0 0 0
1768 1 -81.20269802562069 -43.41822579391435 7.930246051716644 0 0 0
1769 1 -76.50119734891526 -43.41692382739245 10.51320036127823 0 0 0
1770 1 -66.23808140920097 -43.41167724267991 5.265326535035598 0 0 0
1771 1 -58.7118740371252 -43.380296800883464 8.003141730068329 0 0 0
1772 1 -56.866470379647474 -45.67993170522486 6.647550569099963 0 0 0
1773 1 -52.2868272567549 -45.64009277942532 9.292502360625239 0 0 0
1774 1 -50.35261296331591 -43.352116927768655 8.009164647922507 0 0 0
1775 1 -49.45630280561256 -45.689599394190715 9.304692408200072 0 0 0
1776 1 -47.57560933128948 -45.668279351885964 3.999512853240141 0 0 0
1777 1 -43.84651399616151 -45.6219117670505 9.228082506798764 0 0 0
1778 1 -42.90068228680377 -45.695159370897855 6.624652775419989 0 0 0
23907 3 -75.50928590518718 -11.37960392160084 7.903715433849875 0 0 0
1780 1 -33.564430222987276 -43.43448995290942 7.956484040843954 0 0 0
24014 3 -47.56750202050615 -4.554510081126651 3.95000629582303 0 0 0
1810 1 -94.181335851435 -41.15354924342292 9.185458436087508 0 0 0
1811 1 -89.5196404470355 -41.134307790094255 3.938666673312545 0 0 0
1812 1 -85.82137667468245 -41.11479268691064 9.274143751271072 0 0 0
1813 1 -81.19336744914969 -41.14114697848431 3.952854932536477 0 0 0
1814 1 -80.24321221227258 -41.19128280246062 9.197339179489273 0 0 0
1815 1 -79.25815122142586 -41.161044483039404 6.595888162585084 0 0 0
1816 1 -77.37368572363053 -41.09547022117791 9.240907584690756 0 0 0
1817 1 -76.48100455162911 -41.12176923331703 6.590819106408688 0 0 0
1818 1 -74.62860161567792 -41.09066409364906 9.20454202704628 0 0 0
1819 1 -72.7773858848885 -41.09537140958339 4.000510684745265 0 0 0
1820 1 -68.07554908075873 -41.128793368803585 6.575134996095283 0 0 0
1821 1 -66.2114564151602 -41.1783239542928 9.26546075953678 0 0 0
1822 1 -62.43742576527566 -41.10869759340238 6.602595256873244 0 0 0
1823 1 -62.37442771654495 -38.84514100845001 10.54201757298149 0 0 0
1824 1 -59.57122268695073 -38.81538167587634 10.60316085657789 0 0 0
1825 1 -54.96106522880393 -38.82955095838313 5.286618481452528 0 0 0
1826 1 -54.012921670105335 -41.096673456953894 6.638731624988193 0 0 0
1827 1 -50.358704770746314 -38.849709519380305 7.947515646979653 0 0 0
1828 1 -48.45974302069458 -41.110579648789766 6.602323156691039 0 0 0
1829 1 -39.26716568432681 -38.836140885844166 7.908600950155048 0 0 0
1830 1 -37.32671167663482 -41.101651904216034 6.619692853724274 0 0 0
1831 1 -37.32471142567266 -38.822377210329975 10.570893963285428 0 0 0
1856 1 -93.25208078596258 -34.29031567531746 10.606770676632593 0 0 0
1857 1 -75.54077176488933 -36.55136977461692 4.003302014963991 0 0 0
1858 1 -71.87768423000907 -36.55865109778099 9.187498260456845 0 0 0
1859 1 -68.0711999788295 -36.55009580513855 6.556792273919939 0 0 0
1860 1 -67.22945622794579 -36.5602029620861 3.9318885763055516 0 0 0
1861 1 -67.18272956255474 -34.246018491014254 7.898525504945908 0 0 0
1862 1 -66.23326734725643 -36.52412496426121 9.240130187075334 0 0 0
1863 1 -64.33569940233659 -34.236040128372224 7.864519198720515 0 0 0
1864 1 -63.340600294001305 -34.28830136255645 5.241574180370225 0 0 0
1865 1 -56.84296124570208 -36.55869784522196 6.595598350201751 0 0 0
1866 1 -41.15307756949079 -36.60237974997619 9.240094011612399 0 0 0
1867 1 -40.18183816743414 -34.273524475214536 10.62120651046451 0 0 0
1868 1 -38.31854024872337 -36.58070004301931 9.263093812403447 0 0 0
1869 1 -37.365955330128315 -34.24618610739276 10.589666144219994 0 0 0
1870 1 -32.60861595335306 -36.577472149307994 9.257799018983405 0 0 0
24013 3 -49.431227916461246 -2.2912774678995262 5.253491344549339 0 0 0
1901 1 -77.37058421579452 -29.6957334522311 5.266493901884612 0 0 0
1902 1 -75.52564721889117 -31.994284262291266 3.994323758405267 0 0 0
1903 1 -70.88863177630725 -31.98531247004943 6.601024367962797 0 0 0
1904 1 -66.14941872743432 -29.69657380574911 5.269975113477873 0 0 0
1905 1 -56.80615525305133 -31.98404417504282 6.5744757301908905 0 0 0
1906 1 -56.83572637480156 -29.70428169349874 10.551251896302354 0 0 0
1907 1 -54.96284134950199 -31.9883579591707 9.2639211824313 0 0 0
1908 1 -50.27505877576197 -29.745845389563588 7.971792164144343 0 0 0
1909 1 -44.79122818965416 -29.764596297460674 7.913727763017231 0 0 0
1910 1 -42.01225672340208 -29.748070849595727 7.933448691180306 0 0 0
1911 1 -40.13959311132584 -32.0162920622677 6.588671991956005 0 0 0
1912 1 -36.39679531145965 -32.0155445729397 3.9413228922661645 0 0 0
1944 1 -95.13976930647505 -25.115817013123657 7.938401343312499 0 0 0
1945 1 -94.23389147502958 -27.39003437399314 9.21537929886076 0 0 0
1946 1 -93.25062539630916 -25.077800257397346 10.554423023726823 0 0 0
1947 1 -91.4337738305261 -25.10188763111374 5.235513177642716 0 0 0
1948 1 -89.54310879631367 -27.420606366099925 3.9047855220295027 0 0 0
1949 1 -88.61485279806159 -27.428755052589516 9.281911576279192 0 0 0
1950 1 -78.37274090935098 -27.4393499318575 3.9477656280763664 0 0 0
1951 1 -74.60587810583964 -27.463148757434997 9.237246403678395 0 0 0
1952 1 -72.81274597058737 -27.437762115580988 3.9870058742623673 0 0 0
1953 1 -71.80863933667928 -25.22554261115747 5.298258193742125 0 0 0
1954 1 -70.90627464425367 -27.470411968354636 6.584433977289713 0 0 0
1955 1 -62.44335079144423 -25.121553313687322 10.58986947228124 0 0 0
1956 1 -58.69722033303683 -25.145863930440242 7.879656659194698 0 0 0
1957 1 -53.1374796608294 -27.457917344715696 4.0055529680916315 0 0 0
1958 1 -52.213600177073026 -25.22642019170052 5.366185791597676 0 0 0
1959 1 -49.41411442428672 -25.191109284536882 5.29572691518791 0 0 0
1960 1 -43.89195132847711 -27.496535769407014 9.25713523837679 0 0 0
1961 1 -41.104402773132605 -25.209401992072472 5.2710036182767865 0 0 0
1962 1 -36.403415461046556 -27.437358816823526 3.878336723396613 0 0 0
1963 1 -33.58514540890416 -27.409480533422848 3.8972048778688393 0 0 0
1991 1 -91.44793480947529 -20.498973374306225 5.231431303430572 0 0 0
1992 1 -77.46605423665422 -20.55311959120355 5.267178745480624 0 0 0
1993 1 -74.6119226314524 -20.54121037105913 5.285059944684466 0 0 0
1994 1 -68.99875515068813 -22.82906077774645 9.237623410875248 0 0 0
1995 1 -68.97453184967753 -20.573148519012182 5.259673022912359 0 0 0
1996 1 -55.9157930460442 -20.59932127825577 7.981812969426485 0 0 0
1997 1 -55.01218378113565 -20.575735389063542 5.314319951738259 0 0 0
1998 1 -50.32871050173833 -22.88993347483534 4.042479963601348 0 0 0
1999 1 -46.56907433505649 -20.659843320559453 5.341528358421655 0 0 0
2000 1 -41.9563817497858 -22.966321070895656 4.005268894884265 0 0 0
2001 1 -41.91940500683559 -20.617199555994326 7.985668491954936 0 0 0
2002 1 -39.165580505458244 -20.55676566157921 7.921556432635594 0 0 0
2033 1 -88.70201801583264 -18.281720315567398 9.272467904580072 0 0 0
2034 1 -83.96713005682733 -16.00036157277562 7.875978776115925 0 0 0
2035 1 -82.08143485767981 -15.986325821415043 10.542307379146393 0 0 0
2036 1 -81.15915228382066 -18.30311018605808 3.925347580074833 0 0 0
2037 1 -79.19550573007221 -15.995192724896071 10.544521041566721 0 0 0
2038 1 -78.33451615910911 -15.995562870523472 7.875452736554163 0 0 0
2039 1 -75.57752877245761 -15.949162773104206 7.942211460918848 0 0 0
2040 1 -73.67299245996423 -18.227167537185974 6.582952749090634 0 0 0
2041 1 -72.76208679362108 -15.935033438832818 7.917979976721298 0 0 0
2042 1 -69.97691784186831 -15.912701299507034 7.880533508089705 0 0 0
2043 1 -69.02589781535913 -18.224917308957867 9.239874108197476 0 0 0
2044 1 -67.09601595944542 -18.256908705138223 4.001769668553669 0 0 0
2045 1 -67.15502733356945 -15.959670923332837 7.917804259277041 0 0 0
2046 1 -64.29771465642983 -18.29605860354242 3.9408582351768846 0 0 0
2047 1 -60.60368995436525 -15.981813777354095 5.315556177315667 0 0 0
2048 1 -59.71936600426124 -18.27206884927256 6.622033268499347 0 0 0
2049 1 -55.95774564552512 -18.309929266409053 3.9815482065957166 0 0 0
2050 1 -48.488283397826194 -18.360813092121713 6.601682041520931 0 0 0
2051 1 -48.45391768441839 -16.041907984012255 10.589091739433151 0 0 0
2052 1 -47.52535859221752 -18.385645102202655 3.9938336460679196 0 0 0
2053 1 -46.5694050028905 -16.057173164609168 5.325050843520458 0 0 0