ITEM: TIMESTEP
1
ITEM: NUMBER OF ATOMS
4000
ITEM: BOX BOUNDS pp pp pp
0.0000000000000000e+00 5.2921603615141905e+01
0.0000000000000000e+00 5.2921656536745516e+01
0.0000000000000000e+00 5.2921603615141905e+01
ITEM: ATOMS id type x y z v_p1 v_p2 v_p3 v_p4 v_p5 v_p6 
1 1        0.0000000000000000        0.0000000000000000        0.0000000000000000       -0.0000000000000000       -0.0000000000000000       -0.0000000000000000       -0.0000000000000000       -0.0000000000000000       -0.0000000000000000 
2 1        0.0000000000000000        2.6460801807570951        2.6460801807570951       -0.0000000000000000       -0.0000000000000000       -0.0000000000000000       -0.0000000000000000       -0.0000000000000000       -0.0000000000000000 
3 1        2.6460801807570951        0.0000026460801808        2.6460801807570951       -0.0000000000000000       -0.0000000000000000       -0.0000000000000000       -0.0000000000000000       -0.0000000000000000       -0.0000000000000000 
4 1        2.6460801807570951        2.6460828268372758        0.0000000000000000       -0.0000000000000000       -0.0000000000000000       -0.0000000000000000       -0.0000000000000000       -0.0000000000000000       -0.0000000000000000 
5 1        5.2921603615141901        0.0000052921603615        0.0000000000000000       -0.0000000000000000       -0.0000000000000000       -0.0000000000000000       -0.0000000000000000       -0.0000000000000000       -0.0000000000000000 
6 1        5.2921603615141901        2.6460854729174565        2.6460801807570951       -0.0000000000000000       -0.0000000000000000       -0.0000000000000000       -0.0000000000000000       -0.0000000000000000       -0.0000000000000000 
7 1        7.9382405422712852        0.0000079382405423        2.6460801807570951       -0.0000000000000000       -0.0000000000000000       -0.0000000000000000       -0.0000000000000000       -0.0000000000000000       -0.0000000000000000 
8 1        7.9382405422712852        2.6460881189976373        0.0000000000000000       -0.0000000000000000       -0.0000000000000000       -0.0000000000000000       -0.0000000000000000       -0.0000000000000000       -0.0000000000000000 
9 1       10.5843207230283802        0.0000105843207230        0.0000000000000000       -0.0000000000000000       -0.0000000000000000       -0.0000000000000000       -0.0000000000000000       -0.0000000000000000       -0.0000000000000000 
10 1       10.5843207230283802        2.6460907650778180        2.6460801807570951       -0.0000000000000000       -0.0000000000000000       -0.0000000000000000       -0.0000000000000000       -0.0000000000000000       -0.0000000000000000 
11 1       13.2304009037854762        0.0000132304009038        2.6460801807570951       -0.0000000000000000       -0.0000000000000000       -0.0000000000000000       -0.0000000000000000       -0.0000000000000000       -0.0000000000000000 
12 1       13.2304009037854762        2.6460934111579988        0.0000000000000000       -0.0000000000000000       -0.0000000000000000       -0.0000000000000000       -0.0000000000000000       -0.0000000000000000       -0.0000000000000000 
13 1       15.8764810845425703        0.0000158764810845        0.0000000000000000       -0.0000000000000000       -0.0000000000000000       -0.0000000000000000       -0.0000000000000000       -0.0000000000000000       -0.0000000000000000 
14 1       15.8764810845425703        2.6460960572381795        2.6460801807570951       -0.0000000000000000       -0.0000000000000000       -0.0000000000000000       -0.0000000000000000       -0.0000000000000000       -0.0000000000000000 
15 1       18.5225612652996645        0.0000185225612653        2.6460801807570951       -0.0000000000000000       -0.0000000000000000       -0.0000000000000000       -0.0000000000000000       -0.0000000000000000       -0.0000000000000000 
16 1       18.5225612652996645        2.6460987033183603        0.0000000000000000       -0.0000000000000000       -0.0000000000000000       -0.0000000000000000       -0.0000000000000000       -0.0000000000000000       -0.0000000000000000 
17 1       21.1686414460567605        0.0000211686414461        0.0000000000000000       -0.0000000000000000       -0.0000000000000000       -0.0000000000000000       -0.0000000000000000       -0.0000000000000000       -0.0000000000000000 
18 1       21.1686414460567605        2.6461013493985410        2.6460801807570951       -0.0000000000000000       -0.0000000000000000       -0.0000000000000000       -0.0000000000000000       -0.0000000000000000       -0.0000000000000000 
19 1       23.8147216268138564        0.0000238147216268        2.6460801807570951       -0.0000000000000000       -0.0000000000000000       -0.0000000000000000       -0.0000000000000000       -0.0000000000000000       -0.0000000000000000 
20 1       23.8147216268138564        2.6461039954787218        0.0000000000000000       -0.0000000000000000       -0.0000000000000000       -0.0000000000000000       -0.0000000000000000       -0.0000000000000000       -0.0000000000000000 
21 1       26.4608018075709523        0.0000264608018076        0.0000000000000000       -0.0000000000000000       -0.0000000000000000       -0.0000000000000000       -0.0000000000000000       -0.0000000000000000       -0.0000000000000000 
22 1       26.4608018075709523        2.6461066415589025        2.6460801807570951       -0.0000000000000000       -0.0000000000000000       -0.0000000000000000       -0.0000000000000000       -0.0000000000000000       -0.0000000000000000 
23 1       29.1068819883280447        0.0000291068819883        2.6460801807570951       -0.0000000000000000       -0.0000000000000000       -0.0000000000000000       -0.0000000000000000       -0.0000000000000000       -0.0000000000000000 
24 1       29.1068819883280447        2.6461092876390833        0.0000000000000000       -0.0000000000000000       -0.0000000000000000       -0.0000000000000000       -0.0000000000000000       -0.0000000000000000       -0.0000000000000000 
25 1       31.7529621690851407        0.0000317529621691        0.0000000000000000       -0.0000000000000000       -0.0000000000000000       -0.0000000000000000       -0.0000000000000000       -0.0000000000000000       -0.0000000000000000 
26 1       31.7529621690851407        2.6461119337192640        2.6460801807570951       -0.0000000000000000       -0.0000000000000000       -0.0000000000000000       -0.0000000000000000       -0.0000000000000000       -0.0000000000000000 
27 1       34.3990423498422331        0.0000343990423498        2.6460801807570951       -0.0000000000000000       -0.0000000000000000       -0.0000000000000000       -0.0000000000000000       -0.0000000000000000       -0.0000000000000000 
28 1       34.3990423498422331        2.6461145797994448        0.0000000000000000       -0.0000000000000000       -0.0000000000000000       -0.0000000000000000       -0.0000000000000000       -0.0000000000000000       -0.0000000000000000 
29 1       37.0451225305993290        0.0000370451225306        0.0000000000000000       -0.0000000000000000       -0.0000000000000000       -0.0000000000000000       -0.0000000000000000       -0.0000000000000000       -0.0000000000000000 
30 1       37.0451225305993290        2.6461172258796255        2.6460801807570951       -0.0000000000000000       -0.0000000000000000       -0.0000000000000000       -0.0000000000000000       -0.0000000000000000       -0.0000000000000000 
31 1       39.6912027113564250        0.0000396912027114        2.6460801807570951       -0.0000000000000000       -0.0000000000000000       -0.0000000000000000       -0.0000000000000000       -0.0000000000000000       -0.0000000000000000 
32 1       39.6912027113564250        2.6461198719598062        0.0000000000000000       -0.0000000000000000       -0.0000000000000000       -0.0000000000000000       -0.0000000000000000       -0.0000000000000000       -0.0000000000000000 
33 1       42.3372828921135209        0.0000423372828921        0.0000000000000000       -0.0000000000000000       -0.0000000000000000       -0.0000000000000000       -0.0000000000000000       -0.0000000000000000       -0.0000000000000000 
34 1       42.3372828921135209        2.6461225180399870        2.6460801807570951       -0.0000000000000000       -0.0000000000000000       -0.0000000000000000       -0.0000000000000000       -0.0000000000000000       -0.0000000000000000 
35 1       44.9833630728706169        0.0000449833630729        2.6460801807570951       -0.0000000000000000       -0.0000000000000000       -0.0000000000000000       -0.0000000000000000       -0.0000000000000000       -0.0000000000000000 
36 1       44.9833630728706169        2.6461251641201677        0.0000000000000000       -0.0000000000000000       -0.0000000000000000       -0.0000000000000000       -0.0000000000000000       -0.0000000000000000       -0.0000000000000000 
37 1       47.6294432536277128        0.0000476294432536        0.0000000000000000       -0.0000000000000000       -0.0000000000000000       -0.0000000000000000       -0.0000000000000000       -0.0000000000000000       -0.0000000000000000 
38 1       47.6294432536277128        2.6461278102003485        2.6460801807570951       -0.0000000000000000       -0.0000000000000000       -0.0000000000000000       -0.0000000000000000       -0.0000000000000000       -0.0000000000000000 
39 1       50.2755234343848088        0.0000502755234344        2.6460801807570951       -0.0000000000000000       -0.0000000000000000       -0.0000000000000000       -0.0000000000000000       -0.0000000000000000       -0.0000000000000000 
40 1       50.2755234343848088        2.6461304562805292        0.0000000000000000       -0.0000000000000000       -0.0000000000000000       -0.0000000000000000       -0.0000000000000000       -0.0000000000000000       -0.0000000000000000 
41 1        0.0000000000000000        5.2921603615141901        0.0000000000000000       -0.0000000000000000       -0.0000000000000000       -0.0000000000000000       -0.0000000000000000       -0.0000000000000000       -0.0000000000000000 
42 1        0.0000000000000000        7.9382405422712852        2.6460801807570951       -0.0000000000000000       -0.0000000000000000       -0.0000000000000000       -0.0000000000000000       -0.0000000000000000       -0.0000000000000000 
43 1        2.6460801807570951        5.2921630075943709        2.6460801807570951       -0.0000000000000000       -0.0000000000000000       -0.0000000000000000       -0.0000000000000000       -0.0000000000000000       -0.0000000000000000 
44 1        2.6460801807570951        7.9382431883514659        0.0000000000000000       -0.0000000000000000       -0.0000000000000000       -0.0000000000000000       -0.0000000000000000       -0.0000000000000000       -0.0000000000000000 
45 1        5.2921603615141901        5.2921656536745516        0.0000000000000000       -0.0000000000000000       -0.0000000000000000       -0.0000000000000000       -0.0000000000000000       -0.0000000000000000       -0.0000000000000000 
46 1        5.2921603615141901        7.9382458344316467        2.6460801807570951       -0.0000000000000000       -0.0000000000000000       -0.0000000000000000       -0.0000000000000000       -0.0000000000000000       -0.0000000000000000 
47 1        7.9382405422712852        5.2921682997547324        2.6460801807570951       -0.0000000000000000       -0.0000000000000000       -0.0000000000000000       -0.0000000000000000       -0.0000000000000000       -0.0000000000000000 
48 1        7.9382405422712852        7.9382484805118274        0.0000000000000000       -0.0000000000000000       -0.0000000000000000       -0.0000000000000000       -0.0000000000000000       -0.0000000000000000       -0.0000000000000000 
49 1       10.5843207230283802        5.2921709458349131        0.0000000000000000       -0.0000000000000000       -0.0000000000000000       -0.0000000000000000       -0.0000000000000000       -0.0000000000000000       -0.0000000000000000 
50 1       10.5843207230283802        7.9382511265920082        2.6460801807570951       -0.0000000000000000       -0.0000000000000000       -0.0000000000000000       -0.0000000000000000       -0.0000000000000000       -0.0000000000000000 
51 1       13.2304009037854762        5.2921735919150938        2.6460801807570951       -0.0000000000000000       -0.0000000000000000       -0.0000000000000000       -0.0000000000000000       -0.0000000000000000       -0.0000000000000000 
52 1       13.2304009037854762        7.9382537726721889        0.0000000000000000       -0.0000000000000000       -0.0000000000000000       -0.0000000000000000       -0.0000000000000000       -0.0000000000000000       -0.0000000000000000 
53 1       15.8764810845425703        5.2921762379952746        0.0000000000000000       -0.0000000000000000       -0.0000000000000000       -0.0000000000000000       -0.0000000000000000       -0.0000000000000000       -0.0000000000000000 
54 1       15.8764810845425703        7.9382564187523696        2.6460801807570951       -0.0000000000000000       -0.0000000000000000       -0.0000000000000000       -0.0000000000000000       -0.0000000000000000       -0.0000000000000000 
55 1       18.5225612652996645        5.2921788840754553        2.6460801807570951       -0.0000000000000000       -0.0000000000000000       -0.0000000000000000       -0.0000000000000000       -0.0000000000000000       -0.0000000000000000 
56 1       18.5225612652996645        7.9382590648325504        0.0000000000000000       -0.0000000000000000       -0.0000000000000000       -0.0000000000000000       -0.0000000000000000       -0.0000000000000000       -0.0000000000000000 
57 1       21.1686414460567605        5.2921815301556361        0.0000000000000000       -0.0000000000000000       -0.0000000000000000       -0.0000000000000000       -0.0000000000000000       -0.0000000000000000       -0.0000000000000000 
58 1       21.1686414460567605        7.9382617109127311        2.6460801807570951       -0.0000000000000000       -0.0000000000000000       -0.0000000000000000       -0.0000000000000000       -0.0000000000000000       -0.0000000000000000 
59 1       23.8147216268138564        5.2921841762358168        2.6460801807570951       -0.0000000000000000       -0.0000000000000000       -0.0000000000000000       -0.0000000000000000       -0.0000000000000000       -0.0000000000000000 
60 1       23.8147216268138564        7.9382643569929119        0.0000000000000000       -0.0000000000000000       -0.0000000000000000       -0.0000000000000000       -0.0000000000000000       -0.0000000000000000       -0.0000000000000000 
61 1       26.4608018075709523        5.2921868223159976        0.0000000000000000       -0.0000000000000000       -0.0000000000000000       -0.0000000000000000       -0.0000000000000000       -0.0000000000000000       -0.0000000000000000 
62 1       26.4608018075709523        7.9382670030730926        2.6460801807570951       -0.0000000000000000       -0.0000000000000000       -0.0000000000000000       -0.0000000000000000       -0.0000000000000000       -0.0000000000000000 
63 1       29.1068819883280447        5.2921894683961783        2.6460801807570951       -0.0000000000000000       -0.0000000000000000       -0.0000000000000000       -0.0000000000000000       -0.0000000000000000       -0.0000000000000000 
64 1       29.1068819883280447        7.9382696491532734        0.0000000000000000       -0.0000000000000000       -0.0000000000000000       -0.0000000000000000       -0.0000000000000000       -0.0000000000000000       -0.0000000000000000 
65 1       31.7529621690851407        5.2921921144763591        0.0000000000000000       -0.0000000000000000       -0.0000000000000000       -0.0000000000000000       -0.0000000000000000       -0.0000000000000000       -0.0000000000000000 
66 1       31.7529621690851407        7.9382722952334541        2.6460801807570951       -0.0000000000000000       -0.0000000000000000       -0.0000000000000000       -0.0000000000000000       -0.0000000000000000       -0.0000000000000000 
67 1       34.3990423498422331        5.2921947605565398        2.6460801807570951       -0.0000000000000000       -0.0000000000000000       -0.0000000000000000       -0.0000000000000000       -0.0000000000000000       -0.0000000000000000 
68 1       34.3990423498422331        7.9382749413136349        0.0000000000000000       -0.0000000000000000       -0.0000000000000000       -0.0000000000000000       -0.0000000000000000       -0.0000000000000000       -0.0000000000000000 
69 1       37.0451225305993290        5.2921974066367206        0.0000000000000000       -0.0000000000000000       -0.0000000000000000       -0.0000000000000000       -0.0000000000000000       -0.0000000000000000       -0.0000000000000000 
70 1       37.0451225305993290        7.9382775873938156        2.6460801807570951       -0.0000000000000000       -0.0000000000000000       -0.0000000000000000       -0.0000000000000000       -0.0000000000000000       -0.0000000000000000 
71 1       39.6912027113564250        5.2922000527169013        2.6460801807570951       -0.0000000000000000       -0.0000000000000000       -0.0000000000000000       -0.0000000000000000       -0.0000000000000000       -0.0000000000000000 
72 1       39.6912027113564250        7.9382802334739964        0.0000000000000000       -0.0000000000000000       -0.0000000000000000       -0.0000000000000000       -0.0000000000000000       -0.0000000000000000       -0.0000000000000000 
73 1       42.3372828921135209        5.2922026987970820        0.0000000000000000       -0.0000000000000000       -0.0000000000000000       -0.0000000000000000       -0.0000000000000000       -0.0000000000000000       -0.0000000000000000 
74 1       42.3372828921135209        7.9382828795541771        2.6460801807570951       -0.0000000000000000       -0.0000000000000000       -0.0000000000000000       -0.0000000000000000       -0.0000000000000000       -0.0000000000000000 
75 1       44.9833630728706169        5.2922053448772628        2.6460801807570951       -0.0000000000000000       -0.0000000000000000       -0.0000000000000000       -0.0000000000000000       -0.0000000000000000       -0.0000000000000000 
76 1       44.9833630728706169        7.9382855256343579        0.0000000000000000       -0.0000000000000000       -0.0000000000000000       -0.0000000000000000       -0.0000000000000000       -0.0000000000000000       -0.0000000000000000 
77 1       47.6294432536277128        5.2922079909574435        0.0000000000000000       -0.0000000000000000       -0.0000000000000000       -0.0000000000000000       -0.0000000000000000       -0.0000000000000000       -0.0000000000000000 
78 1       47.6294432536277128        7.9382881717145386        2.6460801807570951       -0.0000000000000000       -0.0000000000000000       -0.0000000000000000       -0.0000000000000000       -0.0000000000000000       -0.0000000000000000 
79 1       50.2755234343848088        5.2922106370376243        2.6460801807570951       -0.0000000000000000       -0.0000000000000000       -0.0000000000000000       -0.0000000000000000       -0.0000000000000000       -0.0000000000000000 
80 1       50.2755234343848088        7.9382908177947193        0.0000000000000000       -0.0000000000000000       -0.0000000000000000       -0.0000000000000000       -0.0000000000000000       -0.0000000000000000       -0.0000000000000000 
81 1        0.0000000000000000       10.5843207230283802        0.0000000000000000       -0.0000000000000000       -0.0000000000000000       -0.0000000000000000       -0.0000000000000000       -0.0000000000000000       -0.0000000000000000 
82 1        0.0000000000000000       13.2304009037854762        2.6460801807570951       -0.0000000000000000       -0.0000000000000000       -0.0000000000000000       -0.0000000000000000       -0.0000000000000000       -0.0000000000000000 
83 1        2.6460801807570951       10.5843233691085619        2.6460801807570951       -0.0000000000000000       -0.0000000000000000       -0.0000000000000000       -0.0000000000000000       -0.0000000000000000       -0.0000000000000000 
84 1        2.6460801807570951       13.2304035498656578        0.0000000000000000       -0.0000000000000000       -0.0000000000000000       -0.0000000000000000       -0.0000000000000000       -0.0000000000000000       -0.0000000000000000 
85 1        5.2921603615141901       10.5843260151887417        0.0000000000000000       -0.0000000000000000       -0.0000000000000000       -0.0000000000000000       -0.0000000000000000       -0.0000000000000000       -0.0000000000000000 
86 1        5.2921603615141901       13.2304061959458377        2.6460801807570951       -0.0000000000000000       -0.0000000000000000       -0.0000000000000000       -0.0000000000000000       -0.0000000000000000       -0.0000000000000000 
87 1        7.9382405422712852       10.5843286612689234        2.6460801807570951       -0.0000000000000000       -0.0000000000000000       -0.0000000000000000       -0.0000000000000000       -0.0000000000000000       -0.0000000000000000 
88 1        7.9382405422712852       13.2304088420260193        0.0000000000000000       -0.0000000000000000       -0.0000000000000000       -0.0000000000000000       -0.0000000000000000       -0.0000000000000000       -0.0000000000000000 
89 1       10.5843207230283802       10.5843313073491032        0.0000000000000000       -0.0000000000000000       -0.0000000000000000       -0.0000000000000000       -0.0000000000000000       -0.0000000000000000       -0.0000000000000000 
90 1       10.5843207230283802       13.2304114881061992        2.6460801807570951       -0.0000000000000000       -0.0000000000000000       -0.0000000000000000       -0.0000000000000000       -0.0000000000000000       -0.0000000000000000 
91 1       13.2304009037854762       10.5843339534292848        2.6460801807570951       -0.0000000000000000       -0.0000000000000000       -0.0000000000000000       -0.0000000000000000       -0.0000000000000000       -0.0000000000000000 
92 1       13.2304009037854762       13.2304141341863808        0.0000000000000000       -0.0000000000000000       -0.0000000000000000       -0.0000000000000000       -0.0000000000000000       -0.0000000000000000       -0.0000000000000000 
93 1       15.8764810845425703       10.5843365995094647        0.0000000000000000       -0.0000000000000000       -0.0000000000000000       -0.0000000000000000       -0.0000000000000000       -0.0000000000000000       -0.0000000000000000 
94 1       15.8764810845425703       13.2304167802665607        2.6460801807570951       -0.0000000000000000       -0.0000000000000000       -0.0000000000000000       -0.0000000000000000       -0.0000000000000000       -0.0000000000000000 
95 1       18.5225612652996645       10.5843392455896463        2.6460801807570951       -0.0000000000000000       -0.0000000000000000       -0.0000000000000000       -0.0000000000000000       -0.0000000000000000       -0.0000000000000000 
96 1       18.5225612652996645       13.2304194263467423        0.0000000000000000       -0.0000000000000000       -0.0000000000000000       -0.0000000000000000       -0.0000000000000000       -0.0000000000000000       -0.0000000000000000 
97 1       21.1686414460567605       10.5843418916698262        0.0000000000000000       -0.0000000000000000       -0.0000000000000000       -0.0000000000000000       -0.0000000000000000       -0.0000000000000000       -0.0000000000000000 
98 1       21.1686414460567605       13.2304220724269221        2.6460801807570951       -0.0000000000000000       -0.0000000000000000       -0.0000000000000000       -0.0000000000000000       -0.0000000000000000       -0.0000000000000000 
99 1       23.8147216268138564       10.5843445377500078        2.6460801807570951       -0.0000000000000000       -0.0000000000000000       -0.0000000000000000       -0.0000000000000000       -0.0000000000000000       -0.0000000000000000 
100 1       23.8147216268138564       13.2304247185071038        0.0000000000000000       -0.0000000000000000       -0.0000000000000000       -0.0000000000000000       -0.0000000000000000       -0.0000000000000000       -0.0000000000000000 
101 1       26.4608018075709523       10.5843471838301877        0.0000000000000000       -0.0000000000000000       -0.0000000000000000       -0.0000000000000000       -0.0000000000000000       -0.0000000000000000       -0.0000000000000000 
102 1       26.4608018075709523       13.2304273645872836        2.6460801807570951       -0.0000000000000000       -0.0000000000000000       -0.0000000000000000       -0.0000000000000000       -0.0000000000000000       -0.0000000000000000 
103 1       29.1068819883280447       10.5843498299103693        2.6460801807570951       -0.0000000000000000       -0.0000000000000000       -0.0000000000000000       -0.0000000000000000       -0.0000000000000000       -0.0000000000000000 
104 1       29.1068819883280447       13.2304300106674653        0.0000000000000000       -0.0000000000000000       -0.0000000000000000       -0.0000000000000000       -0.0000000000000000       -0.0000000000000000       -0.0000000000000000 
105 1       31.7529621690851407       10.5843524759905492        0.0000000000000000       -0.0000000000000000       -0.0000000000000000       -0.0000000000000000       -0.0000000000000000       -0.0000000000000000       -0.0000000000000000 
106 1       31.7529621690851407       13.2304326567476451        2.6460801807570951       -0.0000000000000000       -0.0000000000000000       -0.0000000000000000       -0.0000000000000000       -0.0000000000000000       -0.0000000000000000 
107 1       34.3990423498422331       10.5843551220707308        2.6460801807570951       -0.0000000000000000       -0.0000000000000000       -0.0000000000000000       -0.0000000000000000       -0.0000000000000000       -0.0000000000000000 
108 1       34.3990423498422331       13.2304353028278268        0.0000000000000000       -0.0000000000000000       -0.0000000000000000       -0.0000000000000000       -0.0000000000000000       -0.0000000000000000       -0.0000000000000000 
109 1       37.0451225305993290       10.5843577681509107        0.0000000000000000       -0.0000000000000000       -0.0000000000000000       -0.0000000000000000       -0.0000000000000000       -0.0000000000000000       -0.0000000000000000 
110 1       37.0451225305993290       13.2304379489080066        2.6460801807570951       -0.0000000000000000       -0.0000000000000000       -0.0000000000000000       -0.0000000000000000       -0.0000000000000000       -0.0000000000000000 
111 1       39.6912027113564250       10.5843604142310923        2.6460801807570951       -0.0000000000000000       -0.0000000000000000       -0.0000000000000000       -0.0000000000000000       -0.0000000000000000       -0.0000000000000000 
112 1       39.6912027113564250       13.2304405949881883        0.0000000000000000       -0.0000000000000000       -0.0000000000000000       -0.0000000000000000       -0.0000000000000000       -0.0000000000000000       -0.0000000000000000 
113 1       42.3372828921135209       10.5843630603112722        0.0000000000000000       -0.0000000000000000       -0.0000000000000000       -0.0000000000000000       -0.0000000000000000       -0.0000000000000000       -0.0000000000000000 
114 1       42.3372828921135209       13.2304432410683681        2.6460801807570951       -0.0000000000000000       -0.0000000000000000       -0.0000000000000000       -0.0000000000000000       -0.0000000000000000       -0.0000000000000000 
115 1       44.9833630728706169       10.5843657063914538        2.6460801807570951       -0.0000000000000000       -0.0000000000000000       -0.0000000000000000       -0.0000000000000000       -0.0000000000000000       -0.0000000000000000 
116 1       44.9833630728706169       13.2304458871485497        0.0000000000000000       -0.0000000000000000       -0.0000000000000000       -0.0000000000000000       -0.0000000000000000       -0.0000000000000000       -0.0000000000000000 
117 1       47.6294432536277128       10.5843683524716337        0.0000000000000000       -0.0000000000000000       -0.0000000000000000       -0.0000000000000000       -0.0000000000000000       -0.0000000000000000       -0.0000000000000000 
118 1       47.6294432536277128       13.2304485332287296        2.6460801807570951       -0.0000000000000000       -0.0000000000000000       -0.0000000000000000       -0.0000000000000000       -0.0000000000000000       -0.0000000000000000 
119 1       50.2755234343848088       10.5843709985518153        2.6460801807570951       -0.0000000000000000       -0.0000000000000000       -0.0000000000000000       -0.0000000000000000       -0.0000000000000000       -0.0000000000000000 
120 1       50.2755234343848088       13.2304511793089112        0.0000000000000000       -0.0000000000000000       -0.0000000000000000       -0.0000000000000000       -0.0000000000000000       -0.0000000000000000       -0.0000000000000000 
121 1        0.0000000000000000       15.8764810845425703        0.0000000000000000       -0.0000000000000000       -0.0000000000000000       -0.0000000000000000       -0.0000000000000000       -0.0000000000000000       -0.0000000000000000 
122 1        0.0000000000000000       18.5225612652996645        2.6460801807570951       -0.0000000000000000       -0.0000000000000000       -0.0000000000000000       -0.0000000000000000       -0.0000000000000000       -0.0000000000000000 
123 1        2.6460801807570951       15.8764837306227520        2.6460801807570951       -0.0000000000000000       -0.0000000000000000       -0.0000000000000000       -0.0000000000000000       -0.0000000000000000       -0.0000000000000000 