# Bcc oriented X=[-111] Y=[101] Z=[12-1].

24480 atoms
3 atom types

-95.187276549540 95.187276549540 xlo xhi
-45.717697559130 45.717697559130 ylo yhi
-11.877806246622 11.877806246622 zlo zhi
0 0 0 xy xz yz

Masses

1 92.908 #Nb
2 180.95 #Ta
3 50.941 #V

Atoms # atomic

1 1 -94.254067955977 -45.717697559130 -6.598781248129
2 1 -88.654816394217 -43.431812681174 -10.558049996987
3 1 -83.988773426020 -43.431812681174 -7.918537497740
4 1 -79.322730458013 -43.431812681174 -5.279024998493
5 1 -74.656687489817 -43.431812681174 -10.558049996987
6 1 -72.790270302500 -45.717697559130 -11.877806246622
7 1 -69.990644521810 -43.431812681174 -7.918537497740
8 1 -61.591767179170 -43.431812681174 -7.918537497740
9 1 -58.792141398290 -45.717697559130 -11.877806246622
10 1 -57.858932804537 -45.717697559130 -6.598781248129
11 1 -55.059307023847 -43.431812681174 -10.558049996987
12 1 -54.126098430093 -45.717697559130 -9.238293747375
13 1 -50.393264055650 -45.717697559130 -11.877806246622
14 1 -45.727221087453 -45.717697559130 -9.238293747375
15 1 -44.794012493890 -45.717697559130 -11.877806246622
16 1 -44.794012493890 -43.431812681174 -7.918537497740
17 1 -39.194760932130 -43.431812681174 -7.918537497740
18 1 -38.261552338567 -43.431812681174 -10.558049996987
19 1 -27.996257808610 -43.431812681174 -7.918537497740
20 1 -25.196632027730 -43.431812681174 -7.918537497740
21 1 -24.263423434167 -45.717697559130 -6.598781248129
22 1 -23.330214840603 -45.717697559130 -9.238293747375
23 1 -10.265294529766 -45.717697559130 -6.598781248129
24 1 -3.732834374443 -45.717697559130 -9.238293747375
25 1 13.998128904400 -45.717697559130 -11.877806246622
26 1 27.063049215047 -45.717697559130 -9.238293747375
27 1 27.996257808610 -45.717697559130 -11.877806246622
28 1 39.194760932130 -45.717697559130 -11.877806246622
29 1 46.660429681207 -43.431812681174 -5.279024998493
30 1 47.593638274770 -45.717697559130 -11.877806246622
31 1 48.526846868333 -45.717697559130 -6.598781248129
32 1 49.460055462087 -45.717697559130 -9.238293747375
33 1 55.059307023847 -43.431812681174 -5.279024998493
34 1 77.456313270697 -43.431812681174 -5.279024998493
35 1 80.255939051577 -43.431812681174 -5.279024998493
36 1 82.122356238893 -45.717697559130 -6.598781248129
37 1 92.387650768660 -43.431812681174 -7.918537497740
38 1 -79.322730458013 -41.145927803217 -9.238293747375
39 1 -74.656687489817 -38.860042925261 -10.558049996987
40 1 -72.790270302500 -41.145927803217 -11.877806246622
41 1 -63.458184366297 -41.145927803217 -6.598781248129
42 1 -59.725349991853 -38.860042925261 -5.279024998493
43 1 -57.858932804537 -38.860042925261 -10.558049996987
44 1 -56.925724210973 -38.860042925261 -5.279024998493
45 1 -55.992515617410 -41.145927803217 -11.877806246622
46 1 -55.992515617410 -38.860042925261 -7.918537497740
47 1 -55.059307023847 -38.860042925261 -10.558049996987
48 1 -50.393264055650 -38.860042925261 -7.918537497740
49 1 -49.460055462087 -38.860042925261 -10.558049996987
50 1 -41.061178119447 -41.145927803217 -6.598781248129
51 1 -33.595509370370 -38.860042925261 -7.918537497740
52 1 -31.729092183243 -38.860042925261 -5.279024998493
53 1 -25.196632027730 -38.860042925261 -7.918537497740
54 1 -14.931337497963 -41.145927803217 -9.238293747375
55 1 -6.532460155323 -38.860042925261 -5.279024998493
56 1 0.933208593563 -41.145927803217 -6.598781248129
57 1 0.933208593563 -38.860042925261 -10.558049996987
58 1 1.866417187317 -38.860042925261 -5.279024998493
59 1 13.064920310647 -41.145927803217 -9.238293747375
60 1 13.064920310647 -38.860042925261 -5.279024998493
61 1 18.664171872407 -38.860042925261 -5.279024998493
62 1 19.597380466160 -41.145927803217 -11.877806246622
63 1 26.129840621483 -38.860042925261 -10.558049996987
64 1 27.996257808610 -38.860042925261 -7.918537497740
65 1 32.662300776807 -38.860042925261 -5.279024998493
66 1 33.595509370370 -38.860042925261 -7.918537497740
67 1 34.528717964123 -41.145927803217 -6.598781248129
68 1 39.194760932130 -41.145927803217 -11.877806246622
69 1 44.794012493890 -41.145927803217 -11.877806246622
70 1 44.794012493890 -38.860042925261 -7.918537497740
71 1 51.326472649213 -38.860042925261 -10.558049996987
72 1 61.591767179170 -41.145927803217 -11.877806246622
73 1 61.591767179170 -38.860042925261 -7.918537497740
74 1 68.124227334493 -38.860042925261 -10.558049996987
75 1 78.389521864260 -38.860042925261 -7.918537497740
76 1 -93.320859362223 -36.574158047304 -9.238293747375
77 1 -93.320859362223 -34.288273169348 -5.279024998493
78 1 -88.654816394217 -34.288273169348 -10.558049996987
79 1 -83.988773426020 -34.288273169348 -7.918537497740
80 1 -73.723478896253 -34.288273169348 -5.279024998493
81 1 -71.857061708937 -34.288273169348 -10.558049996987
82 1 -69.990644521810 -36.574158047304 -11.877806246622
83 1 -64.391392960050 -34.288273169348 -7.918537497740
84 1 -55.992515617410 -34.288273169348 -7.918537497740
85 1 -41.994386713010 -34.288273169348 -7.918537497740
86 1 -38.261552338567 -36.574158047304 -6.598781248129
87 1 -36.395135151250 -34.288273169348 -7.918537497740
88 1 -17.730963278843 -34.288273169348 -5.279024998493
89 1 -13.998128904400 -36.574158047304 -11.877806246622
90 1 -13.064920310647 -36.574158047304 -6.598781248129
91 1 -9.332085936203 -34.288273169348 -5.279024998493
92 1 -7.465668749077 -34.288273169348 -10.558049996987
93 1 -6.532460155323 -36.574158047304 -9.238293747375
94 1 2.799625780880 -36.574158047304 -11.877806246622
95 1 10.265294529767 -36.574158047304 -9.238293747375
96 1 18.664171872407 -36.574158047304 -9.238293747375
97 1 19.597380466160 -36.574158047304 -11.877806246622
98 1 22.397006247040 -36.574158047304 -11.877806246622
99 1 26.129840621483 -34.288273169348 -10.558049996987
100 1 28.929466402363 -34.288273169348 -10.558049996987
101 1 29.862674995927 -36.574158047304 -9.238293747375
102 1 36.395135151250 -34.288273169348 -7.918537497740
103 1 39.194760932130 -34.288273169348 -7.918537497740
104 1 40.127969525693 -34.288273169348 -10.558049996987
105 1 43.860803900327 -36.574158047304 -9.238293747375
106 1 45.727221087453 -34.288273169348 -10.558049996987
107 1 55.059307023847 -36.574158047304 -9.238293747375
108 1 58.792141398290 -34.288273169348 -7.918537497740
109 1 61.591767179170 -36.574158047304 -11.877806246622
110 1 67.191018740930 -36.574158047304 -11.877806246622
111 1 71.857061708937 -36.574158047304 -9.238293747375
112 1 74.656687489817 -36.574158047304 -9.238293747375
113 1 74.656687489817 -34.288273169348 -5.279024998493
114 1 83.988773426020 -36.574158047304 -11.877806246622
115 1 84.921982019774 -36.574158047304 -6.598781248129
116 1 84.921982019774 -34.288273169348 -10.558049996987
117 1 88.654816394217 -34.288273169348 -5.279024998493
118 1 92.387650768660 -36.574158047304 -11.877806246622
119 1 -93.320859362223 -29.716503413435 -5.279024998493
120 1 -86.788399206900 -29.716503413435 -7.918537497740
121 1 -85.855190613337 -29.716503413435 -10.558049996987
122 1 -81.189147645140 -32.002388291391 -11.877806246622
123 1 -77.456313270697 -32.002388291391 -6.598781248129
124 1 -77.456313270697 -29.716503413435 -10.558049996987
125 1 -74.656687489817 -29.716503413435 -10.558049996987
126 1 -73.723478896253 -29.716503413435 -5.279024998493
127 1 -69.057435928057 -32.002388291391 -6.598781248129
128 1 -67.191018740930 -29.716503413435 -7.918537497740
129 1 -63.458184366297 -29.716503413435 -10.558049996987
130 1 -61.591767179170 -32.002388291391 -11.877806246622
131 1 -61.591767179170 -29.716503413435 -7.918537497740
132 1 -50.393264055650 -32.002388291391 -11.877806246622
133 1 -45.727221087453 -29.716503413435 -5.279024998493
134 1 -40.127969525693 -32.002388291391 -9.238293747375
135 1 -35.461926557687 -29.716503413435 -10.558049996987
136 1 -21.463797653287 -32.002388291391 -6.598781248129
137 1 -19.597380466160 -29.716503413435 -7.918537497740
138 1 -18.664171872407 -32.002388291391 -6.598781248129
139 1 -14.931337497963 -32.002388291391 -9.238293747375
140 1 -9.332085936203 -32.002388291391 -9.238293747375
141 1 -5.599251561760 -32.002388291391 -11.877806246622
142 1 -0.933208593563 -32.002388291391 -9.238293747375
143 1 4.666042968197 -32.002388291391 -9.238293747375
144 1 8.398877342640 -29.716503413435 -7.918537497740
145 1 9.332085936203 -32.002388291391 -6.598781248129
146 1 16.797754685280 -32.002388291391 -11.877806246622
147 1 16.797754685280 -29.716503413435 -7.918537497740
148 1 20.530589059723 -32.002388291391 -6.598781248129
149 1 22.397006247040 -32.002388291391 -11.877806246622
150 1 33.595509370370 -32.002388291391 -11.877806246622
151 1 35.461926557687 -32.002388291391 -9.238293747375
152 1 41.994386713010 -29.716503413435 -7.918537497740
153 1 44.794012493890 -32.002388291391 -11.877806246622
154 1 50.393264055650 -32.002388291391 -11.877806246622
155 1 51.326472649213 -32.002388291391 -6.598781248129
156 1 57.858932804536 -32.002388291391 -9.238293747375
157 1 64.391392960050 -32.002388291391 -11.877806246622
158 1 65.324601553613 -32.002388291391 -6.598781248129
159 1 66.257810147177 -32.002388291391 -9.238293747375
160 1 68.124227334493 -32.002388291391 -6.598781248129
161 1 69.057435928057 -29.716503413435 -5.279024998493
162 1 82.122356238893 -29.716503413435 -10.558049996987
163 1 83.055564832457 -29.716503413435 -5.279024998493
164 1 88.654816394217 -32.002388291391 -9.238293747375
165 1 94.254067955977 -32.002388291391 -9.238293747375
166 1 -83.055564832457 -25.144733657522 -10.558049996987
167 1 -81.189147645140 -25.144733657522 -7.918537497740
168 1 -77.456313270697 -27.430618535478 -6.598781248129
169 1 -75.589896083380 -25.144733657522 -7.918537497740
170 1 -68.124227334493 -27.430618535478 -9.238293747375
171 1 -64.391392960050 -27.430618535478 -11.877806246622
172 1 -64.391392960050 -25.144733657522 -7.918537497740
173 1 -62.524975772733 -25.144733657522 -5.279024998493
174 1 -60.658558585417 -25.144733657522 -10.558049996987
175 1 -58.792141398290 -27.430618535478 -11.877806246622
176 1 -55.992515617410 -25.144733657522 -7.918537497740
177 1 -52.259681242967 -25.144733657522 -10.558049996987
178 1 -51.326472649213 -27.430618535478 -9.238293747375
179 1 -49.460055462087 -25.144733657522 -10.558049996987
180 1 -45.727221087453 -25.144733657522 -5.279024998493
181 1 -40.127969525693 -27.430618535478 -9.238293747375
182 1 -34.528717964123 -27.430618535478 -9.238293747375
183 1 -28.929466402363 -25.144733657522 -5.279024998493
184 1 -27.996257808610 -25.144733657522 -7.918537497740
185 1 -20.530589059723 -25.144733657522 -5.279024998493
186 1 -13.998128904400 -27.430618535478 -11.877806246622
187 1 -9.332085936203 -27.430618535478 -9.238293747375
188 1 -6.532460155323 -27.430618535478 -9.238293747375
189 1 0.933208593563 -25.144733657522 -10.558049996987
190 1 6.532460155323 -25.144733657522 -10.558049996987
191 1 13.998128904400 -27.430618535478 -11.877806246622
192 1 13.998128904400 -25.144733657522 -7.918537497740
193 1 20.530589059723 -27.430618535478 -6.598781248129
194 1 23.330214840603 -27.430618535478 -6.598781248129
195 1 34.528717964123 -27.430618535478 -6.598781248129
196 1 36.395135151250 -25.144733657522 -7.918537497740
197 1 37.328343745004 -25.144733657522 -10.558049996987
198 1 42.927595306573 -27.430618535478 -6.598781248129
199 1 42.927595306573 -25.144733657522 -10.558049996987
200 1 47.593638274770 -25.144733657522 -7.918537497740
201 1 51.326472649213 -27.430618535478 -6.598781248129
202 1 54.126098430093 -25.144733657522 -10.558049996987
203 1 61.591767179170 -25.144733657522 -7.918537497740
204 1 65.324601553613 -25.144733657522 -10.558049996987
205 1 69.990644521810 -27.430618535478 -11.877806246622
206 1 70.923853115373 -27.430618535478 -6.598781248129
207 1 76.523104677133 -27.430618535478 -6.598781248129
208 1 85.855190613337 -25.144733657522 -5.279024998493
209 1 88.654816394217 -27.430618535478 -9.238293747375
210 1 -94.254067955977 -22.858848779565 -6.598781248129
211 1 -90.521233581343 -22.858848779565 -9.238293747375
212 1 -85.855190613337 -22.858848779565 -6.598781248129
213 1 -85.855190613337 -20.572963901609 -10.558049996987
214 1 -82.122356238893 -20.572963901609 -5.279024998493
215 1 -81.189147645140 -20.572963901609 -7.918537497740
216 1 -76.523104677133 -22.858848779565 -9.238293747375
217 1 -69.990644521810 -22.858848779565 -11.877806246622
218 1 -69.057435928057 -20.572963901609 -10.558049996987
219 1 -68.124227334493 -22.858848779565 -9.238293747375
220 1 -67.191018740930 -20.572963901609 -7.918537497740
221 1 -65.324601553613 -22.858848779565 -9.238293747375
222 1 -65.324601553613 -20.572963901609 -5.279024998493
223 1 -59.725349991853 -22.858848779565 -9.238293747375
224 1 -51.326472649213 -22.858848779565 -9.238293747375
225 1 -50.393264055650 -22.858848779565 -11.877806246622
226 1 -44.794012493890 -20.572963901609 -7.918537497740
227 1 -43.860803900327 -22.858848779565 -6.598781248129
228 1 -39.194760932130 -22.858848779565 -11.877806246622
229 1 -36.395135151250 -22.858848779565 -11.877806246622
230 1 -24.263423434167 -20.572963901609 -10.558049996987
231 1 -22.397006247040 -22.858848779565 -11.877806246622
232 1 -18.664171872407 -20.572963901609 -10.558049996987
233 1 -13.998128904400 -20.572963901609 -7.918537497740
234 1 -6.532460155323 -22.858848779565 -9.238293747375
235 1 -3.732834374443 -22.858848779565 -9.238293747375
236 1 0.000000000000 -20.572963901609 -7.918537497740
237 1 0.933208593563 -22.858848779565 -6.598781248129
238 1 3.732834374443 -22.858848779565 -6.598781248129
239 1 4.666042968197 -20.572963901609 -5.279024998493
240 1 6.532460155323 -22.858848779565 -6.598781248129
241 1 17.730963278843 -22.858848779565 -6.598781248129
242 1 19.597380466160 -20.572963901609 -7.918537497740
243 1 20.530589059723 -22.858848779565 -6.598781248129
244 1 22.397006247040 -22.858848779565 -11.877806246622
245 1 25.196632027730 -20.572963901609 -7.918537497740
246 1 27.996257808610 -20.572963901609 -7.918537497740
247 1 33.595509370370 -22.858848779565 -11.877806246622
248 1 38.261552338567 -22.858848779565 -9.238293747375
249 1 40.127969525693 -22.858848779565 -6.598781248129
250 1 40.127969525693 -20.572963901609 -10.558049996987
251 1 44.794012493890 -22.858848779565 -11.877806246622
252 1 68.124227334493 -20.572963901609 -10.558049996987
253 1 79.322730458013 -20.572963901609 -10.558049996987
254 1 81.189147645140 -22.858848779565 -11.877806246622
255 1 83.988773426020 -22.858848779565 -11.877806246622
256 1 85.855190613337 -20.572963901609 -5.279024998493
257 1 -88.654816394217 -18.287079023652 -6.598781248129
258 1 -87.721607800463 -16.001194145696 -5.279024998493
259 1 -83.988773426020 -18.287079023652 -11.877806246622
260 1 -83.988773426020 -16.001194145696 -7.918537497740
261 1 -74.656687489817 -18.287079023652 -6.598781248129
262 1 -72.790270302500 -16.001194145696 -7.918537497740
263 1 -65.324601553613 -16.001194145696 -5.279024998493
264 1 -60.658558585417 -16.001194145696 -10.558049996987
265 1 -59.725349991853 -16.001194145696 -5.279024998493
266 1 -49.460055462087 -16.001194145696 -10.558049996987
267 1 -47.593638274770 -16.001194145696 -7.918537497740
268 1 -44.794012493890 -18.287079023652 -11.877806246622
269 1 -43.860803900327 -16.001194145696 -10.558049996987
270 1 -42.927595306573 -18.287079023652 -9.238293747375
271 1 -41.061178119447 -18.287079023652 -6.598781248129
272 1 -39.194760932130 -18.287079023652 -11.877806246622
273 1 -27.996257808610 -18.287079023652 -11.877806246622
274 1 -15.864546091527 -16.001194145696 -10.558049996987
275 1 -13.064920310647 -18.287079023652 -6.598781248129
276 1 -12.131711717083 -18.287079023652 -9.238293747375
277 1 -9.332085936203 -18.287079023652 -9.238293747375
278 1 -7.465668749077 -16.001194145696 -10.558049996987
279 1 0.000000000000 -18.287079023652 -11.877806246622
280 1 4.666042968197 -16.001194145696 -5.279024998493
281 1 21.463797653287 -18.287079023652 -9.238293747375
282 1 25.196632027730 -18.287079023652 -11.877806246622
283 1 25.196632027730 -16.001194145696 -7.918537497740
284 1 32.662300776807 -16.001194145696 -5.279024998493
285 1 33.595509370370 -18.287079023652 -11.877806246622
286 1 34.528717964123 -16.001194145696 -10.558049996987
287 1 41.061178119447 -18.287079023652 -9.238293747375
288 1 47.593638274770 -18.287079023652 -11.877806246622
289 1 57.858932804536 -16.001194145696 -5.279024998493
290 1 63.458184366297 -18.287079023652 -9.238293747375
291 1 65.324601553613 -18.287079023652 -6.598781248129
292 1 69.057435928057 -18.287079023652 -9.238293747375
293 1 71.857061708937 -16.001194145696 -5.279024998493
294 1 75.589896083380 -18.287079023652 -11.877806246622
295 1 83.988773426020 -18.287079023652 -11.877806246622
296 1 86.788399206900 -16.001194145696 -7.918537497740
297 1 94.254067955977 -16.001194145696 -5.279024998493
298 1 -95.187276549540 -11.429424389783 -7.918537497740
299 1 -87.721607800463 -11.429424389783 -5.279024998493
300 1 -82.122356238893 -11.429424389783 -5.279024998493
301 1 -78.389521864260 -13.715309267739 -11.877806246622
302 1 -75.589896083380 -11.429424389783 -7.918537497740
303 1 -72.790270302500 -11.429424389783 -7.918537497740
304 1 -68.124227334493 -13.715309267739 -9.238293747375
305 1 -65.324601553613 -13.715309267739 -9.238293747375
306 1 -60.658558585417 -11.429424389783 -10.558049996987
307 1 -59.725349991853 -11.429424389783 -5.279024998493
308 1 -58.792141398290 -11.429424389783 -7.918537497740
309 1 -56.925724210973 -11.429424389783 -5.279024998493
310 1 -55.992515617410 -11.429424389783 -7.918537497740
311 1 -52.259681242967 -13.715309267739 -6.598781248129
312 1 -46.660429681207 -13.715309267739 -6.598781248129
313 1 -37.328343745004 -13.715309267739 -9.238293747375
314 1 -33.595509370370 -13.715309267739 -11.877806246622
315 1 -32.662300776807 -11.429424389783 -10.558049996987
316 1 -31.729092183243 -11.429424389783 -5.279024998493
317 1 -27.063049215047 -11.429424389783 -10.558049996987
318 1 -25.196632027730 -11.429424389783 -7.918537497740
319 1 -11.198503123520 -11.429424389783 -7.918537497740
320 1 -9.332085936203 -13.715309267739 -9.238293747375
321 1 -5.599251561760 -11.429424389783 -7.918537497740
322 1 -3.732834374443 -11.429424389783 -5.279024998493
323 1 -1.866417187317 -11.429424389783 -10.558049996987
324 1 1.866417187317 -13.715309267739 -9.238293747375
325 1 1.866417187317 -11.429424389783 -5.279024998493
326 1 8.398877342640 -11.429424389783 -7.918537497740
327 1 12.131711717083 -13.715309267739 -6.598781248129
328 1 12.131711717083 -11.429424389783 -10.558049996987
329 1 15.864546091527 -11.429424389783 -5.279024998493
330 1 27.996257808610 -11.429424389783 -7.918537497740
331 1 41.061178119447 -13.715309267739 -9.238293747375
332 1 50.393264055650 -13.715309267739 -11.877806246622
333 1 53.192889836530 -11.429424389783 -7.918537497740
334 1 54.126098430093 -13.715309267739 -6.598781248129
335 1 55.992515617410 -13.715309267739 -11.877806246622
336 1 59.725349991853 -13.715309267739 -6.598781248129
337 1 61.591767179170 -13.715309267739 -11.877806246622
338 1 65.324601553613 -13.715309267739 -6.598781248129
339 1 67.191018740930 -13.715309267739 -11.877806246622
340 1 79.322730458013 -13.715309267739 -6.598781248129
341 1 80.255939051577 -11.429424389783 -5.279024998493
342 1 92.387650768660 -11.429424389783 -7.918537497740
343 1 -92.387650768660 -9.143539511826 -11.877806246622
344 1 -90.521233581343 -6.857654633870 -5.279024998493
345 1 -82.122356238893 -6.857654633870 -5.279024998493
346 1 -76.523104677133 -9.143539511826 -9.238293747375
347 1 -76.523104677133 -6.857654633870 -5.279024998493
348 1 -74.656687489817 -9.143539511826 -6.598781248129
349 1 -71.857061708937 -6.857654633870 -10.558049996987
350 1 -68.124227334493 -6.857654633870 -5.279024998493
351 1 -66.257810147177 -6.857654633870 -10.558049996987
352 1 -47.593638274770 -6.857654633870 -7.918537497740
353 1 -41.994386713010 -6.857654633870 -7.918537497740
354 1 -34.528717964123 -6.857654633870 -5.279024998493
355 1 -29.862674995927 -6.857654633870 -10.558049996987
356 1 -27.996257808610 -6.857654633870 -7.918537497740
357 1 -25.196632027730 -9.143539511826 -11.877806246622
358 1 -22.397006247040 -6.857654633870 -7.918537497740
359 1 -13.064920310647 -6.857654633870 -10.558049996987
360 1 -11.198503123520 -9.143539511826 -11.877806246622
361 1 -8.398877342640 -6.857654633870 -7.918537497740
362 1 -1.866417187317 -6.857654633870 -10.558049996987
363 1 -0.933208593563 -9.143539511826 -9.238293747375
364 1 11.198503123520 -6.857654633870 -7.918537497740
365 1 13.064920310647 -9.143539511826 -9.238293747375
366 1 13.064920310647 -6.857654633870 -5.279024998493
367 1 21.463797653287 -9.143539511826 -9.238293747375
368 1 24.263423434167 -6.857654633870 -5.279024998493
369 1 26.129840621483 -9.143539511826 -6.598781248129
370 1 28.929466402363 -9.143539511826 -6.598781248129
371 1 30.795883589490 -6.857654633870 -7.918537497740
372 1 32.662300776807 -9.143539511826 -9.238293747375
373 1 35.461926557687 -6.857654633870 -5.279024998493
374 1 42.927595306573 -6.857654633870 -10.558049996987
375 1 53.192889836530 -6.857654633870 -7.918537497740
376 1 55.992515617410 -6.857654633870 -7.918537497740
377 1 62.524975772733 -6.857654633870 -10.558049996987
378 1 63.458184366297 -9.143539511826 -9.238293747375
379 1 64.391392960050 -6.857654633870 -7.918537497740
380 1 70.923853115373 -9.143539511826 -6.598781248129
381 1 71.857061708937 -6.857654633870 -5.279024998493
382 1 74.656687489817 -9.143539511826 -9.238293747375
383 1 77.456313270697 -6.857654633870 -5.279024998493
384 1 86.788399206900 -9.143539511826 -11.877806246622
385 1 86.788399206900 -6.857654633870 -7.918537497740
386 1 88.654816394217 -6.857654633870 -5.279024998493
387 1 -95.187276549540 -2.285884877957 -7.918537497740
388 1 -93.320859362223 -4.571769755913 -9.238293747375
389 1 -93.320859362223 -2.285884877957 -5.279024998493
390 1 -91.454442175097 -4.571769755913 -6.598781248129
391 1 -83.055564832457 -4.571769755913 -6.598781248129
392 1 -80.255939051577 -2.285884877957 -10.558049996987
393 1 -78.389521864260 -4.571769755913 -11.877806246622
394 1 -63.458184366297 -4.571769755913 -6.598781248129
395 1 -59.725349991853 -2.285884877957 -5.279024998493
396 1 -55.059307023847 -2.285884877957 -10.558049996987
397 1 -45.727221087453 -2.285884877957 -5.279024998493
398 1 -41.994386713010 -2.285884877957 -7.918537497740
399 1 -41.061178119447 -2.285884877957 -10.558049996987
400 1 -40.127969525693 -4.571769755913 -9.238293747375
401 1 -32.662300776807 -2.285884877957 -10.558049996987
402 1 -30.795883589490 -4.571769755913 -11.877806246622
403 1 -28.929466402363 -2.285884877957 -5.279024998493
404 1 -25.196632027730 -2.285884877957 -7.918537497740
405 1 -23.330214840603 -4.571769755913 -9.238293747375
406 1 -19.597380466160 -4.571769755913 -11.877806246622
407 1 -13.998128904400 -2.285884877957 -7.918537497740
408 1 -11.198503123520 -2.285884877957 -7.918537497740
409 1 -10.265294529766 -4.571769755913 -6.598781248129
410 1 -7.465668749077 -2.285884877957 -10.558049996987
411 1 -2.799625780880 -2.285884877957 -7.918537497740
412 1 -1.866417187317 -2.285884877957 -10.558049996987
413 1 3.732834374443 -4.571769755913 -6.598781248129
414 1 9.332085936203 -2.285884877957 -10.558049996987
415 1 13.998128904400 -2.285884877957 -7.918537497740
416 1 22.397006247040 -2.285884877957 -7.918537497740
417 1 25.196632027730 -4.571769755913 -11.877806246622
418 1 25.196632027730 -2.285884877957 -7.918537497740
419 1 27.063049215047 -4.571769755913 -9.238293747375
420 1 30.795883589490 -2.285884877957 -7.918537497740
421 1 31.729092183243 -4.571769755913 -6.598781248129
422 1 32.662300776807 -4.571769755913 -9.238293747375
423 1 34.528717964123 -4.571769755913 -6.598781248129
424 1 34.528717964123 -2.285884877957 -10.558049996987
425 1 37.328343745004 -4.571769755913 -6.598781248129
426 1 37.328343745004 -2.285884877957 -10.558049996987
427 1 38.261552338567 -4.571769755913 -9.238293747375
428 1 41.994386713010 -2.285884877957 -7.918537497740
429 1 43.860803900327 -4.571769755913 -9.238293747375
430 1 45.727221087453 -4.571769755913 -6.598781248129
431 1 45.727221087453 -2.285884877957 -10.558049996987
432 1 54.126098430093 -4.571769755913 -6.598781248129
433 1 55.059307023847 -4.571769755913 -9.238293747375
434 1 61.591767179170 -2.285884877957 -7.918537497740
435 1 66.257810147177 -4.571769755913 -9.238293747375
436 1 68.124227334493 -2.285884877957 -10.558049996987
437 1 69.990644521810 -4.571769755913 -11.877806246622
438 1 70.923853115373 -4.571769755913 -6.598781248129
439 1 71.857061708937 -4.571769755913 -9.238293747375
440 1 79.322730458013 -2.285884877957 -10.558049996987
441 1 86.788399206900 -4.571769755913 -11.877806246622
442 1 86.788399206900 -2.285884877957 -7.918537497740
443 1 87.721607800463 -2.285884877957 -10.558049996987
444 1 91.454442175097 -2.285884877957 -5.279024998493
445 1 93.320859362223 -4.571769755913 -6.598781248129
446 1 -94.254067955977 0.000000000000 -6.598781248129
447 1 -83.988773426020 0.000000000000 -11.877806246622
448 1 -82.122356238893 2.285884877957 -5.279024998493
449 1 -70.923853115373 2.285884877957 -5.279024998493
450 1 -69.057435928057 2.285884877957 -10.558049996987
451 1 -63.458184366297 2.285884877957 -10.558049996987
452 1 -62.524975772733 0.000000000000 -9.238293747375
453 1 -60.658558585417 2.285884877957 -10.558049996987
454 1 -59.725349991853 0.000000000000 -9.238293747375
455 1 -55.059307023847 0.000000000000 -6.598781248129
456 1 -47.593638274770 2.285884877957 -7.918537497740
457 1 -41.994386713010 2.285884877957 -7.918537497740
458 1 -30.795883589490 2.285884877957 -7.918537497740
459 1 -29.862674995927 2.285884877957 -10.558049996987
460 1 -26.129840621483 2.285884877957 -5.279024998493
461 1 -18.664171872407 2.285884877957 -10.558049996987
462 1 -17.730963278843 0.000000000000 -9.238293747375
463 1 -13.064920310647 0.000000000000 -6.598781248129
464 1 -6.532460155323 0.000000000000 -9.238293747375
465 1 0.933208593563 0.000000000000 -6.598781248129
466 1 5.599251561760 0.000000000000 -11.877806246622
467 1 8.398877342640 2.285884877957 -7.918537497740
468 1 13.998128904400 0.000000000000 -11.877806246622
469 1 20.530589059723 0.000000000000 -6.598781248129
470 1 22.397006247040 0.000000000000 -11.877806246622
471 1 22.397006247040 2.285884877957 -7.918537497740
472 1 23.330214840603 0.000000000000 -6.598781248129
473 1 23.330214840603 2.285884877957 -10.558049996987
474 1 25.196632027730 0.000000000000 -11.877806246622
475 1 31.729092183243 0.000000000000 -6.598781248129
476 1 31.729092183243 2.285884877957 -10.558049996987
477 1 40.127969525693 0.000000000000 -6.598781248129
478 1 44.794012493890 0.000000000000 -11.877806246622
479 1 47.593638274770 2.285884877957 -7.918537497740
480 1 55.059307023847 2.285884877957 -5.279024998493
481 1 56.925724210973 0.000000000000 -6.598781248129
482 1 65.324601553613 0.000000000000 -6.598781248129
483 1 71.857061708937 0.000000000000 -9.238293747375
484 1 76.523104677133 0.000000000000 -6.598781248129
485 1 78.389521864260 0.000000000000 -11.877806246622
486 1 85.855190613337 0.000000000000 -9.238293747375
487 1 86.788399206900 0.000000000000 -11.877806246622
488 1 87.721607800463 0.000000000000 -6.598781248129
489 1 90.521233581343 0.000000000000 -6.598781248129
490 1 94.254067955977 2.285884877957 -5.279024998493
491 1 -90.521233581343 6.857654633870 -5.279024998493
492 1 -89.588024987780 6.857654633870 -7.918537497740
493 1 -88.654816394217 6.857654633870 -10.558049996987
494 1 -79.322730458013 4.571769755913 -9.238293747375
495 1 -78.389521864260 4.571769755913 -11.877806246622
496 1 -71.857061708937 4.571769755913 -6.598781248129
497 1 -68.124227334493 6.857654633870 -5.279024998493
498 1 -51.326472649213 4.571769755913 -9.238293747375
499 1 -41.994386713010 4.571769755913 -11.877806246622
500 1 -38.261552338567 6.857654633870 -10.558049996987
501 1 -36.395135151250 6.857654633870 -7.918537497740
502 1 -32.662300776807 4.571769755913 -6.598781248129
503 1 -30.795883589490 4.571769755913 -11.877806246622
504 1 -28.929466402363 6.857654633870 -5.279024998493
505 1 -27.996257808610 6.857654633870 -7.918537497740
506 1 -24.263423434167 4.571769755913 -6.598781248129
507 1 -21.463797653287 6.857654633870 -10.558049996987
508 1 -14.931337497963 6.857654633870 -5.279024998493
509 1 -8.398877342640 4.571769755913 -11.877806246622
510 1 1.866417187317 4.571769755913 -9.238293747375
511 1 2.799625780880 4.571769755913 -11.877806246622
512 1 11.198503123520 4.571769755913 -11.877806246622
513 1 15.864546091527 4.571769755913 -9.238293747375
514 1 22.397006247040 6.857654633870 -7.918537497740
515 1 25.196632027730 4.571769755913 -11.877806246622
516 1 27.996257808610 4.571769755913 -11.877806246622
517 1 33.595509370370 4.571769755913 -11.877806246622
518 1 35.461926557687 6.857654633870 -5.279024998493
519 1 39.194760932130 4.571769755913 -11.877806246622
520 1 43.860803900327 4.571769755913 -9.238293747375
521 1 43.860803900327 6.857654633870 -5.279024998493
522 1 55.059307023847 6.857654633870 -5.279024998493
523 1 57.858932804536 4.571769755913 -9.238293747375
524 1 59.725349991853 4.571769755913 -6.598781248129
525 1 61.591767179170 4.571769755913 -11.877806246622
526 1 63.458184366297 4.571769755913 -9.238293747375
527 1 66.257810147177 6.857654633870 -5.279024998493
528 1 71.857061708937 4.571769755913 -9.238293747375
529 1 72.790270302500 6.857654633870 -7.918537497740
530 1 73.723478896253 4.571769755913 -6.598781248129
531 1 76.523104677133 4.571769755913 -6.598781248129
532 1 79.322730458013 4.571769755913 -6.598781248129
533 1 81.189147645140 4.571769755913 -11.877806246622
534 1 86.788399206900 6.857654633870 -7.918537497740
535 1 87.721607800463 6.857654633870 -10.558049996987
536 1 91.454442175097 4.571769755913 -9.238293747375
537 1 91.454442175097 6.857654633870 -5.279024998493
538 1 92.387650768660 6.857654633870 -7.918537497740
539 1 -94.254067955977 9.143539511826 -6.598781248129
540 1 -94.254067955977 11.429424389783 -10.558049996987