# Bcc oriented X=[-111] Y=[101] Z=[12-1].

24480 atoms
3 atom types

-95.187276549540 95.187276549540 xlo xhi
-45.717697559130 45.717697559130 ylo yhi
-11.877806246622 11.877806246622 zlo zhi
0 0 0 xy xz yz

Masses

1 92.908 #Nb
2 180.95 #Ta
3 50.941 #V

Atoms # atomic

1 1 -94.254067955977 -43.431812681174 -10.558049996987
2 1 -92.387650768660 -45.717697559130 -11.877806246622
3 1 -89.588024987780 -45.717697559130 -11.877806246622
4 1 -87.721607800463 -43.431812681174 -5.279024998493
5 1 -86.788399206900 -43.431812681174 -7.918537497740
6 1 -82.122356238893 -45.717697559130 -9.238293747375
7 1 -82.122356238893 -43.431812681174 -5.279024998493
8 1 -80.255939051577 -43.431812681174 -10.558049996987
9 1 -72.790270302500 -43.431812681174 -7.918537497740
10 1 -61.591767179170 -43.431812681174 -7.918537497740
11 1 -59.725349991853 -43.431812681174 -5.279024998493
12 1 -55.059307023847 -45.717697559130 -6.598781248129
13 1 -41.994386713010 -45.717697559130 -11.877806246622
14 1 -38.261552338567 -45.717697559130 -6.598781248129
15 1 -37.328343745004 -43.431812681174 -5.279024998493
16 1 -31.729092183243 -43.431812681174 -5.279024998493
17 1 -27.996257808610 -45.717697559130 -11.877806246622
18 1 -26.129840621483 -43.431812681174 -5.279024998493
19 1 -16.797754685280 -43.431812681174 -7.918537497740
20 1 1.866417187317 -45.717697559130 -9.238293747375
21 1 4.666042968197 -45.717697559130 -9.238293747375
22 1 23.330214840603 -45.717697559130 -6.598781248129
23 1 27.063049215047 -45.717697559130 -9.238293747375
24 1 29.862674995927 -45.717697559130 -9.238293747375
25 1 35.461926557687 -45.717697559130 -9.238293747375
26 1 37.328343745004 -45.717697559130 -6.598781248129
27 1 40.127969525693 -45.717697559130 -6.598781248129
28 1 41.994386713010 -43.431812681174 -7.918537497740
29 1 45.727221087453 -43.431812681174 -10.558049996987
30 1 46.660429681207 -43.431812681174 -5.279024998493
31 1 47.593638274770 -43.431812681174 -7.918537497740
32 1 48.526846868333 -45.717697559130 -6.598781248129
33 1 50.393264055650 -45.717697559130 -11.877806246622
34 1 52.259681242967 -45.717697559130 -9.238293747375
35 1 56.925724210973 -43.431812681174 -10.558049996987
36 1 58.792141398290 -45.717697559130 -11.877806246622
37 1 60.658558585417 -45.717697559130 -9.238293747375
38 1 67.191018740930 -45.717697559130 -11.877806246622
39 1 69.990644521810 -43.431812681174 -7.918537497740
40 1 72.790270302500 -43.431812681174 -7.918537497740
41 1 78.389521864260 -43.431812681174 -7.918537497740
42 1 89.588024987780 -43.431812681174 -7.918537497740
43 1 90.521233581343 -43.431812681174 -10.558049996987
44 1 94.254067955977 -43.431812681174 -5.279024998493
45 1 -94.254067955977 -41.145927803217 -6.598781248129
46 1 -89.588024987780 -41.145927803217 -11.877806246622
47 1 -84.921982019774 -38.860042925261 -5.279024998493
48 1 -77.456313270697 -38.860042925261 -10.558049996987
49 1 -72.790270302500 -41.145927803217 -11.877806246622
50 1 -72.790270302500 -38.860042925261 -7.918537497740
51 1 -69.990644521810 -41.145927803217 -11.877806246622
52 1 -66.257810147177 -41.145927803217 -6.598781248129
53 1 -64.391392960050 -41.145927803217 -11.877806246622
54 1 -55.992515617410 -38.860042925261 -7.918537497740
55 1 -51.326472649213 -41.145927803217 -9.238293747375
56 1 -44.794012493890 -38.860042925261 -7.918537497740
57 1 -42.927595306573 -38.860042925261 -5.279024998493
58 1 -28.929466402363 -41.145927803217 -9.238293747375
59 1 -28.929466402363 -38.860042925261 -5.279024998493
60 1 -27.063049215047 -38.860042925261 -10.558049996987
61 1 -26.129840621483 -38.860042925261 -5.279024998493
62 1 -22.397006247040 -38.860042925261 -7.918537497740
63 1 -21.463797653287 -38.860042925261 -10.558049996987
64 1 -17.730963278843 -38.860042925261 -5.279024998493
65 1 -16.797754685280 -41.145927803217 -11.877806246622
66 1 -15.864546091527 -38.860042925261 -10.558049996987
67 1 -9.332085936203 -41.145927803217 -9.238293747375
68 1 -5.599251561760 -41.145927803217 -11.877806246622
69 1 -4.666042968197 -41.145927803217 -6.598781248129
70 1 -4.666042968197 -38.860042925261 -10.558049996987
71 1 4.666042968197 -41.145927803217 -9.238293747375
72 1 9.332085936203 -38.860042925261 -10.558049996987
73 1 12.131711717083 -41.145927803217 -6.598781248129
74 1 26.129840621483 -41.145927803217 -6.598781248129
75 1 30.795883589490 -41.145927803217 -11.877806246622
76 1 31.729092183243 -38.860042925261 -10.558049996987
77 1 32.662300776807 -38.860042925261 -5.279024998493
78 1 34.528717964123 -41.145927803217 -6.598781248129
79 1 36.395135151250 -38.860042925261 -7.918537497740
80 1 47.593638274770 -38.860042925261 -7.918537497740
81 1 55.992515617410 -38.860042925261 -7.918537497740
82 1 62.524975772733 -38.860042925261 -10.558049996987
83 1 63.458184366297 -38.860042925261 -5.279024998493
84 1 64.391392960050 -41.145927803217 -11.877806246622
85 1 70.923853115373 -38.860042925261 -10.558049996987
86 1 74.656687489817 -41.145927803217 -9.238293747375
87 1 84.921982019774 -38.860042925261 -10.558049996987
88 1 85.855190613337 -41.145927803217 -9.238293747375
89 1 85.855190613337 -38.860042925261 -5.279024998493
90 1 86.788399206900 -41.145927803217 -11.877806246622
91 1 91.454442175097 -41.145927803217 -9.238293747375
92 1 -94.254067955977 -34.288273169348 -10.558049996987
93 1 -92.387650768660 -36.574158047304 -11.877806246622
94 1 -89.588024987780 -36.574158047304 -11.877806246622
95 1 -69.990644521810 -34.288273169348 -7.918537497740
96 1 -67.191018740930 -36.574158047304 -11.877806246622
97 1 -60.658558585417 -34.288273169348 -10.558049996987
98 1 -58.792141398290 -34.288273169348 -7.918537497740
99 1 -57.858932804537 -34.288273169348 -10.558049996987
100 1 -52.259681242967 -36.574158047304 -6.598781248129
101 1 -46.660429681207 -36.574158047304 -6.598781248129
102 1 -41.061178119447 -36.574158047304 -6.598781248129
103 1 -39.194760932130 -36.574158047304 -11.877806246622
104 1 -27.063049215047 -34.288273169348 -10.558049996987
105 1 -24.263423434167 -34.288273169348 -10.558049996987
106 1 -23.330214840603 -36.574158047304 -9.238293747375
107 1 -22.397006247040 -34.288273169348 -7.918537497740
108 1 -15.864546091527 -34.288273169348 -10.558049996987
109 1 -11.198503123520 -36.574158047304 -11.877806246622
110 1 2.799625780880 -36.574158047304 -11.877806246622
111 1 3.732834374443 -36.574158047304 -6.598781248129
112 1 13.998128904400 -34.288273169348 -7.918537497740
113 1 15.864546091527 -34.288273169348 -5.279024998493
114 1 19.597380466160 -36.574158047304 -11.877806246622
115 1 21.463797653287 -34.288273169348 -5.279024998493
116 1 23.330214840603 -36.574158047304 -6.598781248129
117 1 27.063049215047 -34.288273169348 -5.279024998493
118 1 31.729092183243 -36.574158047304 -6.598781248129
119 1 33.595509370370 -34.288273169348 -7.918537497740
120 1 38.261552338567 -36.574158047304 -9.238293747375
121 1 40.127969525693 -34.288273169348 -10.558049996987
122 1 50.393264055650 -34.288273169348 -7.918537497740
123 1 56.925724210973 -36.574158047304 -6.598781248129
124 1 57.858932804536 -36.574158047304 -9.238293747375
125 1 60.658558585417 -34.288273169348 -5.279024998493
126 1 69.990644521810 -36.574158047304 -11.877806246622
127 1 76.523104677133 -36.574158047304 -6.598781248129
128 1 77.456313270697 -36.574158047304 -9.238293747375
129 1 87.721607800463 -34.288273169348 -10.558049996987
130 1 91.454442175097 -36.574158047304 -9.238293747375
131 1 -86.788399206900 -32.002388291391 -11.877806246622
132 1 -76.523104677133 -29.716503413435 -5.279024998493
133 1 -73.723478896253 -32.002388291391 -9.238293747375
134 1 -73.723478896253 -29.716503413435 -5.279024998493
135 1 -67.191018740930 -29.716503413435 -7.918537497740
136 1 -57.858932804537 -32.002388291391 -6.598781248129
137 1 -56.925724210973 -29.716503413435 -5.279024998493
138 1 -44.794012493890 -29.716503413435 -7.918537497740
139 1 -37.328343745004 -32.002388291391 -9.238293747375
140 1 -36.395135151250 -29.716503413435 -7.918537497740
141 1 -32.662300776807 -29.716503413435 -10.558049996987
142 1 -23.330214840603 -32.002388291391 -9.238293747375
143 1 -19.597380466160 -32.002388291391 -11.877806246622
144 1 -17.730963278843 -29.716503413435 -5.279024998493
145 1 -12.131711717083 -29.716503413435 -5.279024998493
146 1 -11.198503123520 -32.002388291391 -11.877806246622
147 1 -10.265294529766 -32.002388291391 -6.598781248129
148 1 -10.265294529766 -29.716503413435 -10.558049996987
149 1 -8.398877342640 -32.002388291391 -11.877806246622
150 1 -6.532460155323 -29.716503413435 -5.279024998493
151 1 -3.732834374443 -29.716503413435 -5.279024998493
152 1 -0.933208593563 -32.002388291391 -9.238293747375
153 1 1.866417187317 -32.002388291391 -9.238293747375
154 1 5.599251561760 -29.716503413435 -7.918537497740
155 1 13.998128904400 -29.716503413435 -7.918537497740
156 1 14.931337497963 -32.002388291391 -6.598781248129
157 1 21.463797653287 -29.716503413435 -5.279024998493
158 1 44.794012493890 -32.002388291391 -11.877806246622
159 1 46.660429681207 -29.716503413435 -5.279024998493
160 1 51.326472649213 -29.716503413435 -10.558049996987
161 1 54.126098430093 -32.002388291391 -6.598781248129
162 1 54.126098430093 -29.716503413435 -10.558049996987
163 1 55.059307023847 -32.002388291391 -9.238293747375
164 1 58.792141398290 -29.716503413435 -7.918537497740
165 1 59.725349991853 -32.002388291391 -6.598781248129
166 1 70.923853115373 -32.002388291391 -6.598781248129
167 1 78.389521864260 -29.716503413435 -7.918537497740
168 1 80.255939051577 -32.002388291391 -9.238293747375
169 1 85.855190613337 -32.002388291391 -9.238293747375
170 1 88.654816394217 -29.716503413435 -5.279024998493
171 1 91.454442175097 -32.002388291391 -9.238293747375
172 1 -85.855190613337 -25.144733657522 -10.558049996987
173 1 -83.988773426020 -25.144733657522 -7.918537497740
174 1 -83.055564832457 -27.430618535478 -6.598781248129
175 1 -71.857061708937 -27.430618535478 -6.598781248129
176 1 -71.857061708937 -25.144733657522 -10.558049996987
177 1 -60.658558585417 -27.430618535478 -6.598781248129
178 1 -58.792141398290 -25.144733657522 -7.918537497740
179 1 -57.858932804537 -27.430618535478 -6.598781248129
180 1 -53.192889836530 -27.430618535478 -11.877806246622
181 1 -50.393264055650 -25.144733657522 -7.918537497740
182 1 -49.460055462087 -27.430618535478 -6.598781248129
183 1 -47.593638274770 -27.430618535478 -11.877806246622
184 1 -46.660429681207 -25.144733657522 -10.558049996987
185 1 -43.860803900327 -27.430618535478 -6.598781248129
186 1 -41.994386713010 -27.430618535478 -11.877806246622
187 1 -39.194760932130 -25.144733657522 -7.918537497740
188 1 -36.395135151250 -25.144733657522 -7.918537497740
189 1 -35.461926557687 -27.430618535478 -6.598781248129
190 1 -33.595509370370 -25.144733657522 -7.918537497740
191 1 -32.662300776807 -25.144733657522 -10.558049996987
192 1 -31.729092183243 -27.430618535478 -9.238293747375
193 1 -29.862674995927 -27.430618535478 -6.598781248129
194 1 -29.862674995927 -25.144733657522 -10.558049996987
195 1 -26.129840621483 -25.144733657522 -5.279024998493
196 1 -19.597380466160 -25.144733657522 -7.918537497740
197 1 -17.730963278843 -25.144733657522 -5.279024998493
198 1 -11.198503123520 -27.430618535478 -11.877806246622
199 1 1.866417187317 -25.144733657522 -5.279024998493
200 1 2.799625780880 -25.144733657522 -7.918537497740
201 1 5.599251561760 -27.430618535478 -11.877806246622
202 1 11.198503123520 -27.430618535478 -11.877806246622
203 1 12.131711717083 -27.430618535478 -6.598781248129
204 1 15.864546091527 -27.430618535478 -9.238293747375
205 1 21.463797653287 -25.144733657522 -5.279024998493
206 1 26.129840621483 -25.144733657522 -10.558049996987
207 1 37.328343745004 -25.144733657522 -10.558049996987
208 1 39.194760932130 -25.144733657522 -7.918537497740
209 1 40.127969525693 -27.430618535478 -6.598781248129
210 1 42.927595306573 -25.144733657522 -10.558049996987
211 1 47.593638274770 -25.144733657522 -7.918537497740
212 1 52.259681242967 -25.144733657522 -5.279024998493
213 1 58.792141398290 -27.430618535478 -11.877806246622
214 1 59.725349991853 -25.144733657522 -10.558049996987
215 1 62.524975772733 -27.430618535478 -6.598781248129
216 1 65.324601553613 -27.430618535478 -6.598781248129
217 1 72.790270302500 -27.430618535478 -11.877806246622
218 1 75.589896083380 -27.430618535478 -11.877806246622
219 1 76.523104677133 -25.144733657522 -10.558049996987
220 1 78.389521864260 -27.430618535478 -11.877806246622
221 1 83.988773426020 -27.430618535478 -11.877806246622
222 1 -94.254067955977 -22.858848779565 -6.598781248129
223 1 -93.320859362223 -22.858848779565 -9.238293747375
224 1 -90.521233581343 -20.572963901609 -5.279024998493
225 1 -89.588024987780 -22.858848779565 -11.877806246622
226 1 -86.788399206900 -22.858848779565 -11.877806246622
227 1 -83.988773426020 -20.572963901609 -7.918537497740
228 1 -77.456313270697 -20.572963901609 -10.558049996987
229 1 -73.723478896253 -22.858848779565 -9.238293747375
230 1 -69.990644521810 -22.858848779565 -11.877806246622
231 1 -69.057435928057 -20.572963901609 -10.558049996987
232 1 -64.391392960050 -22.858848779565 -11.877806246622
233 1 -59.725349991853 -20.572963901609 -5.279024998493
234 1 -56.925724210973 -20.572963901609 -5.279024998493
235 1 -55.992515617410 -20.572963901609 -7.918537497740
236 1 -55.059307023847 -20.572963901609 -10.558049996987
237 1 -47.593638274770 -22.858848779565 -11.877806246622
238 1 -39.194760932130 -20.572963901609 -7.918537497740
239 1 -38.261552338567 -22.858848779565 -6.598781248129
240 1 -33.595509370370 -22.858848779565 -11.877806246622
241 1 -30.795883589490 -22.858848779565 -11.877806246622
242 1 -27.996257808610 -20.572963901609 -7.918537497740
243 1 -19.597380466160 -22.858848779565 -11.877806246622
244 1 -13.998128904400 -22.858848779565 -11.877806246622
245 1 -10.265294529766 -22.858848779565 -6.598781248129
246 1 -5.599251561760 -20.572963901609 -7.918537497740
247 1 -4.666042968197 -22.858848779565 -6.598781248129
248 1 1.866417187317 -22.858848779565 -9.238293747375
249 1 5.599251561760 -20.572963901609 -7.918537497740
250 1 12.131711717083 -22.858848779565 -6.598781248129
251 1 13.998128904400 -22.858848779565 -11.877806246622
252 1 14.931337497963 -20.572963901609 -10.558049996987
253 1 18.664171872407 -22.858848779565 -9.238293747375
254 1 25.196632027730 -22.858848779565 -11.877806246622
255 1 28.929466402363 -20.572963901609 -10.558049996987
256 1 33.595509370370 -20.572963901609 -7.918537497740
257 1 40.127969525693 -22.858848779565 -6.598781248129
258 1 43.860803900327 -20.572963901609 -5.279024998493
259 1 50.393264055650 -22.858848779565 -11.877806246622
260 1 50.393264055650 -20.572963901609 -7.918537497740
261 1 53.192889836530 -20.572963901609 -7.918537497740
262 1 69.057435928057 -20.572963901609 -5.279024998493
263 1 73.723478896253 -22.858848779565 -6.598781248129
264 1 76.523104677133 -22.858848779565 -6.598781248129
265 1 79.322730458013 -22.858848779565 -6.598781248129
266 1 82.122356238893 -20.572963901609 -10.558049996987
267 1 89.588024987780 -22.858848779565 -11.877806246622
268 1 90.521233581343 -22.858848779565 -6.598781248129
269 1 -90.521233581343 -18.287079023652 -9.238293747375
270 1 -87.721607800463 -18.287079023652 -9.238293747375
271 1 -86.788399206900 -18.287079023652 -11.877806246622
272 1 -84.921982019774 -16.001194145696 -5.279024998493
273 1 -81.189147645140 -16.001194145696 -7.918537497740
274 1 -78.389521864260 -18.287079023652 -11.877806246622
275 1 -73.723478896253 -18.287079023652 -9.238293747375
276 1 -65.324601553613 -16.001194145696 -5.279024998493
277 1 -59.725349991853 -18.287079023652 -9.238293747375
278 1 -57.858932804537 -18.287079023652 -6.598781248129
279 1 -56.925724210973 -16.001194145696 -5.279024998493
280 1 -55.992515617410 -18.287079023652 -11.877806246622
281 1 -53.192889836530 -18.287079023652 -11.877806246622
282 1 -48.526846868333 -18.287079023652 -9.238293747375
283 1 -47.593638274770 -16.001194145696 -7.918537497740
284 1 -46.660429681207 -16.001194145696 -10.558049996987
285 1 -41.061178119447 -18.287079023652 -6.598781248129
286 1 -38.261552338567 -18.287079023652 -6.598781248129
287 1 -29.862674995927 -16.001194145696 -10.558049996987
288 1 -27.063049215047 -16.001194145696 -10.558049996987
289 1 -26.129840621483 -16.001194145696 -5.279024998493
290 1 -25.196632027730 -16.001194145696 -7.918537497740
291 1 -24.263423434167 -18.287079023652 -6.598781248129
292 1 -22.397006247040 -18.287079023652 -11.877806246622
293 1 -21.463797653287 -16.001194145696 -10.558049996987
294 1 -19.597380466160 -18.287079023652 -11.877806246622
295 1 -14.931337497963 -16.001194145696 -5.279024998493
296 1 -12.131711717083 -16.001194145696 -5.279024998493
297 1 -10.265294529766 -16.001194145696 -10.558049996987
298 1 0.933208593563 -18.287079023652 -6.598781248129
299 1 5.599251561760 -18.287079023652 -11.877806246622
300 1 6.532460155323 -18.287079023652 -6.598781248129
301 1 7.465668749077 -18.287079023652 -9.238293747375
302 1 14.931337497963 -18.287079023652 -6.598781248129
303 1 26.129840621483 -16.001194145696 -10.558049996987
304 1 27.063049215047 -16.001194145696 -5.279024998493
305 1 27.996257808610 -18.287079023652 -11.877806246622
306 1 28.929466402363 -18.287079023652 -6.598781248129
307 1 29.862674995927 -18.287079023652 -9.238293747375
308 1 40.127969525693 -16.001194145696 -10.558049996987
309 1 42.927595306573 -16.001194145696 -10.558049996987
310 1 43.860803900327 -16.001194145696 -5.279024998493
311 1 46.660429681207 -16.001194145696 -5.279024998493
312 1 51.326472649213 -18.287079023652 -6.598781248129
313 1 52.259681242967 -16.001194145696 -5.279024998493
314 1 53.192889836530 -18.287079023652 -11.877806246622
315 1 60.658558585417 -16.001194145696 -5.279024998493
316 1 61.591767179170 -18.287079023652 -11.877806246622
317 1 61.591767179170 -16.001194145696 -7.918537497740
318 1 65.324601553613 -18.287079023652 -6.598781248129
319 1 65.324601553613 -16.001194145696 -10.558049996987
320 1 68.124227334493 -16.001194145696 -10.558049996987
321 1 73.723478896253 -16.001194145696 -10.558049996987
322 1 74.656687489817 -16.001194145696 -5.279024998493
323 1 78.389521864260 -16.001194145696 -7.918537497740
324 1 83.055564832457 -16.001194145696 -5.279024998493
325 1 93.320859362223 -18.287079023652 -6.598781248129
326 1 93.320859362223 -16.001194145696 -10.558049996987
327 1 -90.521233581343 -13.715309267739 -9.238293747375
328 1 -83.988773426020 -13.715309267739 -11.877806246622
329 1 -82.122356238893 -13.715309267739 -9.238293747375
330 1 -78.389521864260 -11.429424389783 -7.918537497740
331 1 -75.589896083380 -13.715309267739 -11.877806246622
332 1 -70.923853115373 -13.715309267739 -9.238293747375
333 1 -65.324601553613 -13.715309267739 -9.238293747375
334 1 -65.324601553613 -11.429424389783 -5.279024998493
335 1 -64.391392960050 -13.715309267739 -11.877806246622
336 1 -60.658558585417 -11.429424389783 -10.558049996987
337 1 -58.792141398290 -11.429424389783 -7.918537497740
338 1 -53.192889836530 -13.715309267739 -11.877806246622
339 1 -52.259681242967 -11.429424389783 -10.558049996987
340 1 -46.660429681207 -13.715309267739 -6.598781248129
341 1 -43.860803900327 -11.429424389783 -10.558049996987
342 1 -41.994386713010 -11.429424389783 -7.918537497740
343 1 -38.261552338567 -11.429424389783 -10.558049996987
344 1 -25.196632027730 -13.715309267739 -11.877806246622
345 1 -23.330214840603 -11.429424389783 -5.279024998493
346 1 -22.397006247040 -13.715309267739 -11.877806246622
347 1 -15.864546091527 -13.715309267739 -6.598781248129
348 1 -14.931337497963 -13.715309267739 -9.238293747375
349 1 -9.332085936203 -11.429424389783 -5.279024998493
350 1 7.465668749077 -11.429424389783 -5.279024998493
351 1 10.265294529767 -11.429424389783 -5.279024998493
352 1 11.198503123520 -11.429424389783 -7.918537497740
353 1 15.864546091527 -13.715309267739 -9.238293747375
354 1 19.597380466160 -11.429424389783 -7.918537497740
355 1 22.397006247040 -13.715309267739 -11.877806246622
356 1 30.795883589490 -11.429424389783 -7.918537497740
357 1 32.662300776807 -11.429424389783 -5.279024998493
358 1 37.328343745004 -13.715309267739 -6.598781248129
359 1 60.658558585417 -13.715309267739 -9.238293747375
360 1 62.524975772733 -11.429424389783 -10.558049996987
361 1 67.191018740930 -11.429424389783 -7.918537497740
362 1 83.988773426020 -13.715309267739 -11.877806246622
363 1 85.855190613337 -11.429424389783 -5.279024998493
364 1 87.721607800463 -11.429424389783 -10.558049996987
365 1 -94.254067955977 -9.143539511826 -6.598781248129
366 1 -93.320859362223 -6.857654633870 -5.279024998493
367 1 -91.454442175097 -9.143539511826 -6.598781248129
368 1 -91.454442175097 -6.857654633870 -10.558049996987
369 1 -89.588024987780 -6.857654633870 -7.918537497740
370 1 -85.855190613337 -6.857654633870 -10.558049996987
371 1 -81.189147645140 -6.857654633870 -7.918537497740
372 1 -72.790270302500 -6.857654633870 -7.918537497740
373 1 -69.057435928057 -9.143539511826 -6.598781248129
374 1 -67.191018740930 -6.857654633870 -7.918537497740
375 1 -57.858932804537 -9.143539511826 -6.598781248129
376 1 -55.059307023847 -6.857654633870 -10.558049996987
377 1 -53.192889836530 -9.143539511826 -11.877806246622
378 1 -53.192889836530 -6.857654633870 -7.918537497740
379 1 -44.794012493890 -6.857654633870 -7.918537497740
380 1 -43.860803900327 -6.857654633870 -10.558049996987
381 1 -40.127969525693 -6.857654633870 -5.279024998493
382 1 -36.395135151250 -9.143539511826 -11.877806246622
383 1 -34.528717964123 -6.857654633870 -5.279024998493
384 1 -28.929466402363 -6.857654633870 -5.279024998493
385 1 -27.996257808610 -9.143539511826 -11.877806246622
386 1 -15.864546091527 -9.143539511826 -6.598781248129
387 1 2.799625780880 -6.857654633870 -7.918537497740
388 1 5.599251561760 -9.143539511826 -11.877806246622
389 1 5.599251561760 -6.857654633870 -7.918537497740
390 1 14.931337497963 -9.143539511826 -6.598781248129
391 1 14.931337497963 -6.857654633870 -10.558049996987
392 1 16.797754685280 -9.143539511826 -11.877806246622
393 1 18.664171872407 -6.857654633870 -5.279024998493
394 1 21.463797653287 -6.857654633870 -5.279024998493
395 1 23.330214840603 -9.143539511826 -6.598781248129
396 1 25.196632027730 -6.857654633870 -7.918537497740
397 1 28.929466402363 -6.857654633870 -10.558049996987
398 1 29.862674995927 -6.857654633870 -5.279024998493
399 1 34.528717964123 -6.857654633870 -10.558049996987
400 1 53.192889836530 -9.143539511826 -11.877806246622
401 1 60.658558585417 -6.857654633870 -5.279024998493
402 1 62.524975772733 -9.143539511826 -6.598781248129
403 1 62.524975772733 -6.857654633870 -10.558049996987
404 1 69.990644521810 -6.857654633870 -7.918537497740
405 1 77.456313270697 -9.143539511826 -9.238293747375
406 1 82.122356238893 -6.857654633870 -10.558049996987
407 1 -85.855190613337 -4.571769755913 -6.598781248129
408 1 -77.456313270697 -2.285884877957 -10.558049996987
409 1 -69.057435928057 -2.285884877957 -10.558049996987
410 1 -62.524975772733 -2.285884877957 -5.279024998493
411 1 -58.792141398290 -4.571769755913 -11.877806246622
412 1 -53.192889836530 -4.571769755913 -11.877806246622
413 1 -48.526846868333 -4.571769755913 -9.238293747375
414 1 -44.794012493890 -2.285884877957 -7.918537497740
415 1 -42.927595306573 -4.571769755913 -9.238293747375
416 1 -41.061178119447 -4.571769755913 -6.598781248129
417 1 -40.127969525693 -4.571769755913 -9.238293747375
418 1 -35.461926557687 -4.571769755913 -6.598781248129
419 1 -33.595509370370 -2.285884877957 -7.918537497740
420 1 -30.795883589490 -4.571769755913 -11.877806246622
421 1 -29.862674995927 -2.285884877957 -10.558049996987
422 1 -28.929466402363 -4.571769755913 -9.238293747375
423 1 -27.996257808610 -2.285884877957 -7.918537497740
424 1 -13.064920310647 -2.285884877957 -10.558049996987
425 1 3.732834374443 -2.285884877957 -10.558049996987
426 1 6.532460155323 -4.571769755913 -6.598781248129
427 1 12.131711717083 -4.571769755913 -6.598781248129
428 1 16.797754685280 -2.285884877957 -7.918537497740
429 1 17.730963278843 -4.571769755913 -6.598781248129
430 1 30.795883589490 -4.571769755913 -11.877806246622
431 1 30.795883589490 -2.285884877957 -7.918537497740
432 1 39.194760932130 -2.285884877957 -7.918537497740
433 1 41.994386713010 -4.571769755913 -11.877806246622
434 1 42.927595306573 -4.571769755913 -6.598781248129
435 1 43.860803900327 -4.571769755913 -9.238293747375
436 1 50.393264055650 -4.571769755913 -11.877806246622
437 1 53.192889836530 -4.571769755913 -11.877806246622
438 1 56.925724210973 -2.285884877957 -10.558049996987
439 1 69.057435928057 -2.285884877957 -5.279024998493
440 1 69.990644521810 -2.285884877957 -7.918537497740
441 1 73.723478896253 -4.571769755913 -6.598781248129
442 1 76.523104677133 -4.571769755913 -6.598781248129
443 1 85.855190613337 -4.571769755913 -9.238293747375
444 1 91.454442175097 -4.571769755913 -9.238293747375
445 1 -87.721607800463 0.000000000000 -9.238293747375
446 1 -81.189147645140 2.285884877957 -7.918537497740
447 1 -65.324601553613 0.000000000000 -9.238293747375
448 1 -63.458184366297 0.000000000000 -6.598781248129
449 1 -54.126098430093 2.285884877957 -5.279024998493
450 1 -51.326472649213 2.285884877957 -5.279024998493
451 1 -49.460055462087 0.000000000000 -6.598781248129
452 1 -48.526846868333 0.000000000000 -9.238293747375
453 1 -47.593638274770 2.285884877957 -7.918537497740
454 1 -43.860803900327 2.285884877957 -10.558049996987
455 1 -35.461926557687 2.285884877957 -10.558049996987
456 1 -27.996257808610 2.285884877957 -7.918537497740
457 1 -26.129840621483 0.000000000000 -9.238293747375
458 1 -18.664171872407 2.285884877957 -10.558049996987
459 1 -17.730963278843 0.000000000000 -9.238293747375
460 1 -13.998128904400 0.000000000000 -11.877806246622
461 1 -13.064920310647 0.000000000000 -6.598781248129
462 1 -6.532460155323 2.285884877957 -5.279024998493
463 1 7.465668749077 2.285884877957 -5.279024998493
464 1 8.398877342640 2.285884877957 -7.918537497740
465 1 14.931337497963 0.000000000000 -6.598781248129
466 1 15.864546091527 2.285884877957 -5.279024998493
467 1 17.730963278843 2.285884877957 -10.558049996987
468 1 22.397006247040 2.285884877957 -7.918537497740
469 1 24.263423434167 2.285884877957 -5.279024998493
470 1 27.996257808610 2.285884877957 -7.918537497740
471 1 29.862674995927 0.000000000000 -9.238293747375
472 1 35.461926557687 2.285884877957 -5.279024998493
473 1 40.127969525693 0.000000000000 -6.598781248129
474 1 42.927595306573 0.000000000000 -6.598781248129
475 1 57.858932804536 2.285884877957 -5.279024998493
476 1 60.658558585417 2.285884877957 -5.279024998493
477 1 62.524975772733 0.000000000000 -6.598781248129
478 1 65.324601553613 0.000000000000 -6.598781248129
479 1 67.191018740930 2.285884877957 -7.918537497740
480 1 70.923853115373 0.000000000000 -6.598781248129
481 1 72.790270302500 2.285884877957 -7.918537497740
482 1 81.189147645140 0.000000000000 -11.877806246622
483 1 83.988773426020 0.000000000000 -11.877806246622
484 1 88.654816394217 0.000000000000 -9.238293747375
485 1 -88.654816394217 4.571769755913 -6.598781248129
486 1 -86.788399206900 6.857654633870 -7.918537497740
487 1 -85.855190613337 6.857654633870 -10.558049996987
488 1 -82.122356238893 6.857654633870 -5.279024998493
489 1 -80.255939051577 6.857654633870 -10.558049996987
490 1 -78.389521864260 6.857654633870 -7.918537497740
491 1 -75.589896083380 6.857654633870 -7.918537497740
492 1 -73.723478896253 4.571769755913 -9.238293747375
493 1 -72.790270302500 6.857654633870 -7.918537497740
494 1 -61.591767179170 6.857654633870 -7.918537497740
495 1 -58.792141398290 6.857654633870 -7.918537497740
496 1 -57.858932804537 6.857654633870 -10.558049996987
497 1 -56.925724210973 4.571769755913 -9.238293747375
498 1 -38.261552338567 4.571769755913 -6.598781248129
499 1 -36.395135151250 4.571769755913 -11.877806246622
500 1 -35.461926557687 6.857654633870 -10.558049996987
501 1 -31.729092183243 6.857654633870 -5.279024998493
502 1 -28.929466402363 4.571769755913 -9.238293747375
503 1 -28.929466402363 6.857654633870 -5.279024998493
504 1 -27.996257808610 4.571769755913 -11.877806246622
505 1 -27.996257808610 6.857654633870 -7.918537497740
506 1 -18.664171872407 6.857654633870 -10.558049996987
507 1 -12.131711717083 4.571769755913 -9.238293747375
508 1 -8.398877342640 4.571769755913 -11.877806246622
509 1 -6.532460155323 4.571769755913 -9.238293747375
510 1 1.866417187317 4.571769755913 -9.238293747375
511 1 4.666042968197 6.857654633870 -5.279024998493
512 1 6.532460155323 6.857654633870 -10.558049996987
513 1 8.398877342640 6.857654633870 -7.918537497740
514 1 11.198503123520 4.571769755913 -11.877806246622
515 1 14.931337497963 4.571769755913 -6.598781248129
516 1 16.797754685280 4.571769755913 -11.877806246622
517 1 21.463797653287 4.571769755913 -9.238293747375
518 1 21.463797653287 6.857654633870 -5.279024998493
519 1 23.330214840603 6.857654633870 -10.558049996987
520 1 24.263423434167 6.857654633870 -5.279024998493
521 1 26.129840621483 6.857654633870 -10.558049996987
522 1 29.862674995927 4.571769755913 -9.238293747375
523 1 32.662300776807 4.571769755913 -9.238293747375
524 1 39.194760932130 4.571769755913 -11.877806246622
525 1 40.127969525693 4.571769755913 -6.598781248129
526 1 41.994386713010 6.857654633870 -7.918537497740
527 1 53.192889836530 4.571769755913 -11.877806246622
528 1 62.524975772733 6.857654633870 -10.558049996987
529 1 63.458184366297 4.571769755913 -9.238293747375
530 1 69.990644521810 6.857654633870 -7.918537497740
531 1 74.656687489817 6.857654633870 -5.279024998493
532 1 75.589896083380 6.857654633870 -7.918537497740
533 1 82.122356238893 6.857654633870 -10.558049996987
534 1 84.921982019774 4.571769755913 -6.598781248129
535 1 85.855190613337 6.857654633870 -5.279024998493
536 1 86.788399206900 4.571769755913 -11.877806246622
537 1 89.588024987780 4.571769755913 -11.877806246622
538 1 90.521233581343 4.571769755913 -6.598781248129
539 1 93.320859362223 4.571769755913 -6.598781248129