# Bcc oriented X=[-111] Y=[101] Z=[12-1].

24480 atoms
3 atom types

-95.187276549540 95.187276549540 xlo xhi
-45.717697559130 45.717697559130 ylo yhi
-11.877806246622 11.877806246622 zlo zhi
0 0 0 xy xz yz

Masses

1 92.908 #Nb
2 180.95 #Ta
3 50.941 #V

Atoms # atomic

1 1 -94.254067955977 -43.431812681174 -10.558049996987
2 1 -93.320859362223 -43.431812681174 -5.279024998493
3 1 -82.122356238893 -45.717697559130 -9.238293747375
4 1 -81.189147645140 -43.431812681174 -7.918537497740
5 1 -80.255939051577 -45.717697559130 -6.598781248129
6 1 -78.389521864260 -45.717697559130 -11.877806246622
7 1 -77.456313270697 -45.717697559130 -6.598781248129
8 1 -50.393264055650 -43.431812681174 -7.918537497740
9 1 -45.727221087453 -45.717697559130 -9.238293747375
10 1 -37.328343745004 -45.717697559130 -9.238293747375
11 1 -35.461926557687 -45.717697559130 -6.598781248129
12 1 -31.729092183243 -45.717697559130 -9.238293747375
13 1 -29.862674995927 -45.717697559130 -6.598781248129
14 1 -27.996257808610 -45.717697559130 -11.877806246622
15 1 -23.330214840603 -43.431812681174 -5.279024998493
16 1 -11.198503123520 -43.431812681174 -7.918537497740
17 1 0.933208593563 -43.431812681174 -10.558049996987
18 1 2.799625780880 -45.717697559130 -11.877806246622
19 1 3.732834374443 -43.431812681174 -10.558049996987
20 1 5.599251561760 -45.717697559130 -11.877806246622
21 1 8.398877342640 -43.431812681174 -7.918537497740
22 1 19.597380466160 -45.717697559130 -11.877806246622
23 1 20.530589059723 -45.717697559130 -6.598781248129
24 1 28.929466402363 -43.431812681174 -10.558049996987
25 1 31.729092183243 -45.717697559130 -6.598781248129
26 1 34.528717964123 -45.717697559130 -6.598781248129
27 1 38.261552338567 -43.431812681174 -5.279024998493
28 1 40.127969525693 -43.431812681174 -10.558049996987
29 1 43.860803900327 -45.717697559130 -9.238293747375
30 1 44.794012493890 -45.717697559130 -11.877806246622
31 1 47.593638274770 -43.431812681174 -7.918537497740
32 1 50.393264055650 -43.431812681174 -7.918537497740
33 1 51.326472649213 -45.717697559130 -6.598781248129
34 1 55.059307023847 -45.717697559130 -9.238293747375
35 1 55.059307023847 -43.431812681174 -5.279024998493
36 1 63.458184366297 -45.717697559130 -9.238293747375
37 1 67.191018740930 -43.431812681174 -7.918537497740
38 1 71.857061708937 -45.717697559130 -9.238293747375
39 1 76.523104677133 -43.431812681174 -10.558049996987
40 1 77.456313270697 -43.431812681174 -5.279024998493
41 1 84.921982019774 -43.431812681174 -10.558049996987
42 1 88.654816394217 -45.717697559130 -9.238293747375
43 1 90.521233581343 -45.717697559130 -6.598781248129
44 1 -92.387650768660 -41.145927803217 -11.877806246622
45 1 -91.454442175097 -38.860042925261 -10.558049996987
46 1 -86.788399206900 -38.860042925261 -7.918537497740
47 1 -81.189147645140 -41.145927803217 -11.877806246622
48 1 -80.255939051577 -41.145927803217 -6.598781248129
49 1 -72.790270302500 -38.860042925261 -7.918537497740
50 1 -71.857061708937 -41.145927803217 -6.598781248129
51 1 -70.923853115373 -38.860042925261 -5.279024998493
52 1 -66.257810147177 -41.145927803217 -6.598781248129
53 1 -66.257810147177 -38.860042925261 -10.558049996987
54 1 -64.391392960050 -38.860042925261 -7.918537497740
55 1 -62.524975772733 -41.145927803217 -9.238293747375
56 1 -62.524975772733 -38.860042925261 -5.279024998493
57 1 -61.591767179170 -38.860042925261 -7.918537497740
58 1 -57.858932804537 -38.860042925261 -10.558049996987
59 1 -49.460055462087 -38.860042925261 -10.558049996987
60 1 -47.593638274770 -38.860042925261 -7.918537497740
61 1 -34.528717964123 -38.860042925261 -5.279024998493
62 1 -31.729092183243 -38.860042925261 -5.279024998493
63 1 -27.996257808610 -41.145927803217 -11.877806246622
64 1 -26.129840621483 -38.860042925261 -5.279024998493
65 1 -22.397006247040 -38.860042925261 -7.918537497740
66 1 -17.730963278843 -41.145927803217 -9.238293747375
67 1 -7.465668749077 -38.860042925261 -10.558049996987
68 1 -6.532460155323 -38.860042925261 -5.279024998493
69 1 -5.599251561760 -41.145927803217 -11.877806246622
70 1 0.000000000000 -41.145927803217 -11.877806246622
71 1 6.532460155323 -38.860042925261 -10.558049996987
72 1 8.398877342640 -38.860042925261 -7.918537497740
73 1 11.198503123520 -38.860042925261 -7.918537497740
74 1 14.931337497963 -38.860042925261 -10.558049996987
75 1 15.864546091527 -38.860042925261 -5.279024998493
76 1 20.530589059723 -41.145927803217 -6.598781248129
77 1 31.729092183243 -41.145927803217 -6.598781248129
78 1 32.662300776807 -41.145927803217 -9.238293747375
79 1 36.395135151250 -38.860042925261 -7.918537497740
80 1 37.328343745004 -41.145927803217 -6.598781248129
81 1 40.127969525693 -41.145927803217 -6.598781248129
82 1 41.994386713010 -41.145927803217 -11.877806246622
83 1 43.860803900327 -41.145927803217 -9.238293747375
84 1 52.259681242967 -38.860042925261 -5.279024998493
85 1 56.925724210973 -38.860042925261 -10.558049996987
86 1 66.257810147177 -38.860042925261 -5.279024998493
87 1 68.124227334493 -38.860042925261 -10.558049996987
88 1 72.790270302500 -38.860042925261 -7.918537497740
89 1 81.189147645140 -38.860042925261 -7.918537497740
90 1 83.055564832457 -38.860042925261 -5.279024998493
91 1 87.721607800463 -41.145927803217 -6.598781248129
92 1 90.521233581343 -41.145927803217 -6.598781248129
93 1 91.454442175097 -38.860042925261 -5.279024998493
94 1 92.387650768660 -41.145927803217 -11.877806246622
95 1 -91.454442175097 -34.288273169348 -10.558049996987
96 1 -87.721607800463 -36.574158047304 -9.238293747375
97 1 -86.788399206900 -34.288273169348 -7.918537497740
98 1 -65.324601553613 -36.574158047304 -9.238293747375
99 1 -63.458184366297 -34.288273169348 -10.558049996987
100 1 -62.524975772733 -34.288273169348 -5.279024998493
101 1 -61.591767179170 -34.288273169348 -7.918537497740
102 1 -58.792141398290 -34.288273169348 -7.918537497740
103 1 -55.059307023847 -34.288273169348 -10.558049996987
104 1 -53.192889836530 -34.288273169348 -7.918537497740
105 1 -51.326472649213 -36.574158047304 -9.238293747375
106 1 -51.326472649213 -34.288273169348 -5.279024998493
107 1 -37.328343745004 -36.574158047304 -9.238293747375
108 1 -29.862674995927 -36.574158047304 -6.598781248129
109 1 -28.929466402363 -34.288273169348 -5.279024998493
110 1 -23.330214840603 -34.288273169348 -5.279024998493
111 1 -20.530589059723 -36.574158047304 -9.238293747375
112 1 -17.730963278843 -34.288273169348 -5.279024998493
113 1 -8.398877342640 -36.574158047304 -11.877806246622
114 1 -3.732834374443 -36.574158047304 -9.238293747375
115 1 4.666042968197 -36.574158047304 -9.238293747375
116 1 8.398877342640 -36.574158047304 -11.877806246622
117 1 11.198503123520 -36.574158047304 -11.877806246622
118 1 16.797754685280 -36.574158047304 -11.877806246622
119 1 21.463797653287 -34.288273169348 -5.279024998493
120 1 32.662300776807 -34.288273169348 -5.279024998493
121 1 34.528717964123 -34.288273169348 -10.558049996987
122 1 44.794012493890 -34.288273169348 -7.918537497740
123 1 47.593638274770 -34.288273169348 -7.918537497740
124 1 50.393264055650 -36.574158047304 -11.877806246622
125 1 51.326472649213 -34.288273169348 -10.558049996987
126 1 55.059307023847 -34.288273169348 -5.279024998493
127 1 56.925724210973 -36.574158047304 -6.598781248129
128 1 58.792141398290 -34.288273169348 -7.918537497740
129 1 59.725349991853 -34.288273169348 -10.558049996987
130 1 74.656687489817 -36.574158047304 -9.238293747375
131 1 74.656687489817 -34.288273169348 -5.279024998493
132 1 75.589896083380 -36.574158047304 -11.877806246622
133 1 83.988773426020 -34.288273169348 -7.918537497740
134 1 84.921982019774 -36.574158047304 -6.598781248129
135 1 86.788399206900 -34.288273169348 -7.918537497740
136 1 90.521233581343 -36.574158047304 -6.598781248129
137 1 92.387650768660 -36.574158047304 -11.877806246622
138 1 -94.254067955977 -32.002388291391 -6.598781248129
139 1 -89.588024987780 -29.716503413435 -7.918537497740
140 1 -83.988773426020 -32.002388291391 -11.877806246622
141 1 -83.055564832457 -32.002388291391 -6.598781248129
142 1 -81.189147645140 -32.002388291391 -11.877806246622
143 1 -75.589896083380 -32.002388291391 -11.877806246622
144 1 -65.324601553613 -32.002388291391 -9.238293747375
145 1 -65.324601553613 -29.716503413435 -5.279024998493
146 1 -62.524975772733 -32.002388291391 -9.238293747375
147 1 -62.524975772733 -29.716503413435 -5.279024998493
148 1 -58.792141398290 -29.716503413435 -7.918537497740
149 1 -51.326472649213 -29.716503413435 -5.279024998493
150 1 -50.393264055650 -29.716503413435 -7.918537497740
151 1 -49.460055462087 -32.002388291391 -6.598781248129
152 1 -49.460055462087 -29.716503413435 -10.558049996987
153 1 -48.526846868333 -29.716503413435 -5.279024998493
154 1 -45.727221087453 -32.002388291391 -9.238293747375
155 1 -42.927595306573 -32.002388291391 -9.238293747375
156 1 -36.395135151250 -29.716503413435 -7.918537497740
157 1 -30.795883589490 -29.716503413435 -7.918537497740
158 1 -28.929466402363 -29.716503413435 -5.279024998493
159 1 -23.330214840603 -29.716503413435 -5.279024998493
160 1 -19.597380466160 -32.002388291391 -11.877806246622
161 1 -17.730963278843 -32.002388291391 -9.238293747375
162 1 -16.797754685280 -32.002388291391 -11.877806246622
163 1 -8.398877342640 -32.002388291391 -11.877806246622
164 1 -2.799625780880 -29.716503413435 -7.918537497740
165 1 1.866417187317 -29.716503413435 -5.279024998493
166 1 2.799625780880 -29.716503413435 -7.918537497740
167 1 8.398877342640 -32.002388291391 -11.877806246622
168 1 13.064920310647 -29.716503413435 -5.279024998493
169 1 21.463797653287 -32.002388291391 -9.238293747375
170 1 28.929466402363 -29.716503413435 -10.558049996987
171 1 30.795883589490 -32.002388291391 -11.877806246622
172 1 36.395135151250 -29.716503413435 -7.918537497740
173 1 37.328343745004 -29.716503413435 -10.558049996987
174 1 52.259681242967 -29.716503413435 -5.279024998493
175 1 53.192889836530 -32.002388291391 -11.877806246622
176 1 56.925724210973 -29.716503413435 -10.558049996987
177 1 57.858932804536 -29.716503413435 -5.279024998493
178 1 59.725349991853 -32.002388291391 -6.598781248129
179 1 60.658558585417 -29.716503413435 -5.279024998493
180 1 63.458184366297 -32.002388291391 -9.238293747375
181 1 70.923853115373 -32.002388291391 -6.598781248129
182 1 72.790270302500 -32.002388291391 -11.877806246622
183 1 80.255939051577 -29.716503413435 -5.279024998493
184 1 84.921982019774 -29.716503413435 -10.558049996987
185 1 85.855190613337 -29.716503413435 -5.279024998493
186 1 93.320859362223 -29.716503413435 -10.558049996987
187 1 94.254067955977 -32.002388291391 -9.238293747375
188 1 -94.254067955977 -25.144733657522 -10.558049996987
189 1 -91.454442175097 -25.144733657522 -10.558049996987
190 1 -88.654816394217 -25.144733657522 -10.558049996987
191 1 -81.189147645140 -27.430618535478 -11.877806246622
192 1 -70.923853115373 -25.144733657522 -5.279024998493
193 1 -69.057435928057 -25.144733657522 -10.558049996987
194 1 -68.124227334493 -25.144733657522 -5.279024998493
195 1 -61.591767179170 -27.430618535478 -11.877806246622
196 1 -60.658558585417 -27.430618535478 -6.598781248129
197 1 -55.992515617410 -27.430618535478 -11.877806246622
198 1 -47.593638274770 -27.430618535478 -11.877806246622
199 1 -44.794012493890 -27.430618535478 -11.877806246622
200 1 -41.061178119447 -27.430618535478 -6.598781248129
201 1 -40.127969525693 -27.430618535478 -9.238293747375
202 1 -38.261552338567 -25.144733657522 -10.558049996987
203 1 -35.461926557687 -25.144733657522 -10.558049996987
204 1 -33.595509370370 -27.430618535478 -11.877806246622
205 1 -32.662300776807 -25.144733657522 -10.558049996987
206 1 -22.397006247040 -27.430618535478 -11.877806246622
207 1 -22.397006247040 -25.144733657522 -7.918537497740
208 1 -21.463797653287 -27.430618535478 -6.598781248129
209 1 -2.799625780880 -25.144733657522 -7.918537497740
210 1 8.398877342640 -27.430618535478 -11.877806246622
211 1 17.730963278843 -25.144733657522 -10.558049996987
212 1 21.463797653287 -25.144733657522 -5.279024998493
213 1 23.330214840603 -25.144733657522 -10.558049996987
214 1 24.263423434167 -25.144733657522 -5.279024998493
215 1 27.996257808610 -25.144733657522 -7.918537497740
216 1 33.595509370370 -25.144733657522 -7.918537497740
217 1 38.261552338567 -25.144733657522 -5.279024998493
218 1 39.194760932130 -25.144733657522 -7.918537497740
219 1 42.927595306573 -25.144733657522 -10.558049996987
220 1 43.860803900327 -25.144733657522 -5.279024998493
221 1 46.660429681207 -27.430618535478 -9.238293747375
222 1 48.526846868333 -25.144733657522 -10.558049996987
223 1 49.460055462087 -25.144733657522 -5.279024998493
224 1 51.326472649213 -27.430618535478 -6.598781248129
225 1 63.458184366297 -25.144733657522 -5.279024998493
226 1 70.923853115373 -25.144733657522 -10.558049996987
227 1 74.656687489817 -27.430618535478 -9.238293747375
228 1 76.523104677133 -25.144733657522 -10.558049996987
229 1 82.122356238893 -27.430618535478 -6.598781248129
230 1 82.122356238893 -25.144733657522 -10.558049996987
231 1 84.921982019774 -27.430618535478 -6.598781248129
232 1 87.721607800463 -27.430618535478 -6.598781248129
233 1 89.588024987780 -27.430618535478 -11.877806246622
234 1 90.521233581343 -25.144733657522 -10.558049996987
235 1 94.254067955977 -27.430618535478 -9.238293747375
236 1 -94.254067955977 -22.858848779565 -6.598781248129
237 1 -92.387650768660 -22.858848779565 -11.877806246622
238 1 -83.055564832457 -20.572963901609 -10.558049996987
239 1 -82.122356238893 -22.858848779565 -9.238293747375
240 1 -78.389521864260 -22.858848779565 -11.877806246622
241 1 -76.523104677133 -20.572963901609 -5.279024998493
242 1 -71.857061708937 -20.572963901609 -10.558049996987
243 1 -70.923853115373 -22.858848779565 -9.238293747375
244 1 -69.057435928057 -20.572963901609 -10.558049996987
245 1 -68.124227334493 -20.572963901609 -5.279024998493
246 1 -64.391392960050 -22.858848779565 -11.877806246622
247 1 -60.658558585417 -22.858848779565 -6.598781248129
248 1 -59.725349991853 -22.858848779565 -9.238293747375
249 1 -57.858932804537 -20.572963901609 -10.558049996987
250 1 -55.992515617410 -20.572963901609 -7.918537497740
251 1 -55.059307023847 -20.572963901609 -10.558049996987
252 1 -47.593638274770 -20.572963901609 -7.918537497740
253 1 -44.794012493890 -22.858848779565 -11.877806246622
254 1 -43.860803900327 -22.858848779565 -6.598781248129
255 1 -42.927595306573 -20.572963901609 -5.279024998493
256 1 -39.194760932130 -22.858848779565 -11.877806246622
257 1 -36.395135151250 -20.572963901609 -7.918537497740
258 1 -34.528717964123 -20.572963901609 -5.279024998493
259 1 -30.795883589490 -22.858848779565 -11.877806246622
260 1 -21.463797653287 -20.572963901609 -10.558049996987
261 1 -8.398877342640 -20.572963901609 -7.918537497740
262 1 -6.532460155323 -22.858848779565 -9.238293747375
263 1 -0.933208593563 -22.858848779565 -9.238293747375
264 1 0.000000000000 -20.572963901609 -7.918537497740
265 1 0.933208593563 -20.572963901609 -10.558049996987
266 1 4.666042968197 -22.858848779565 -9.238293747375
267 1 13.064920310647 -20.572963901609 -5.279024998493
268 1 13.998128904400 -20.572963901609 -7.918537497740
269 1 15.864546091527 -22.858848779565 -9.238293747375
270 1 15.864546091527 -20.572963901609 -5.279024998493
271 1 19.597380466160 -22.858848779565 -11.877806246622
272 1 20.530589059723 -20.572963901609 -10.558049996987
273 1 21.463797653287 -22.858848779565 -9.238293747375
274 1 28.929466402363 -20.572963901609 -10.558049996987
275 1 30.795883589490 -22.858848779565 -11.877806246622
276 1 36.395135151250 -22.858848779565 -11.877806246622
277 1 41.994386713010 -22.858848779565 -11.877806246622
278 1 44.794012493890 -22.858848779565 -11.877806246622
279 1 51.326472649213 -20.572963901609 -10.558049996987
280 1 53.192889836530 -22.858848779565 -11.877806246622
281 1 56.925724210973 -20.572963901609 -10.558049996987
282 1 58.792141398290 -20.572963901609 -7.918537497740
283 1 59.725349991853 -20.572963901609 -10.558049996987
284 1 63.458184366297 -20.572963901609 -5.279024998493
285 1 64.391392960050 -20.572963901609 -7.918537497740
286 1 68.124227334493 -20.572963901609 -10.558049996987
287 1 71.857061708937 -20.572963901609 -5.279024998493
288 1 78.389521864260 -20.572963901609 -7.918537497740
289 1 80.255939051577 -20.572963901609 -5.279024998493
290 1 81.189147645140 -22.858848779565 -11.877806246622
291 1 82.122356238893 -20.572963901609 -10.558049996987
292 1 83.055564832457 -22.858848779565 -9.238293747375
293 1 91.454442175097 -20.572963901609 -5.279024998493
294 1 -87.721607800463 -18.287079023652 -9.238293747375
295 1 -86.788399206900 -16.001194145696 -7.918537497740
296 1 -75.589896083380 -16.001194145696 -7.918537497740
297 1 -73.723478896253 -16.001194145696 -5.279024998493
298 1 -70.923853115373 -16.001194145696 -5.279024998493
299 1 -64.391392960050 -18.287079023652 -11.877806246622
300 1 -52.259681242967 -18.287079023652 -6.598781248129
301 1 -51.326472649213 -16.001194145696 -5.279024998493
302 1 -50.393264055650 -18.287079023652 -11.877806246622
303 1 -45.727221087453 -18.287079023652 -9.238293747375
304 1 -44.794012493890 -16.001194145696 -7.918537497740
305 1 -37.328343745004 -18.287079023652 -9.238293747375
306 1 -31.729092183243 -18.287079023652 -9.238293747375
307 1 -28.929466402363 -18.287079023652 -9.238293747375
308 1 -27.996257808610 -16.001194145696 -7.918537497740
309 1 -19.597380466160 -16.001194145696 -7.918537497740
310 1 -17.730963278843 -16.001194145696 -5.279024998493
311 1 -13.998128904400 -18.287079023652 -11.877806246622
312 1 -12.131711717083 -18.287079023652 -9.238293747375
313 1 -7.465668749077 -18.287079023652 -6.598781248129
314 1 0.000000000000 -16.001194145696 -7.918537497740
315 1 1.866417187317 -18.287079023652 -9.238293747375
316 1 9.332085936203 -16.001194145696 -10.558049996987
317 1 12.131711717083 -18.287079023652 -6.598781248129
318 1 13.064920310647 -16.001194145696 -5.279024998493
319 1 13.998128904400 -18.287079023652 -11.877806246622
320 1 16.797754685280 -18.287079023652 -11.877806246622
321 1 22.397006247040 -18.287079023652 -11.877806246622
322 1 22.397006247040 -16.001194145696 -7.918537497740
323 1 38.261552338567 -16.001194145696 -5.279024998493
324 1 46.660429681207 -16.001194145696 -5.279024998493
325 1 51.326472649213 -16.001194145696 -10.558049996987
326 1 53.192889836530 -16.001194145696 -7.918537497740
327 1 54.126098430093 -18.287079023652 -6.598781248129
328 1 60.658558585417 -16.001194145696 -5.279024998493
329 1 69.990644521810 -16.001194145696 -7.918537497740
330 1 77.456313270697 -18.287079023652 -9.238293747375
331 1 83.988773426020 -16.001194145696 -7.918537497740
332 1 84.921982019774 -18.287079023652 -6.598781248129
333 1 86.788399206900 -18.287079023652 -11.877806246622
334 1 87.721607800463 -18.287079023652 -6.598781248129
335 1 88.654816394217 -18.287079023652 -9.238293747375
336 1 92.387650768660 -16.001194145696 -7.918537497740
337 1 93.320859362223 -16.001194145696 -10.558049996987
338 1 -84.921982019774 -11.429424389783 -5.279024998493
339 1 -79.322730458013 -11.429424389783 -5.279024998493
340 1 -77.456313270697 -13.715309267739 -6.598781248129
341 1 -76.523104677133 -11.429424389783 -5.279024998493
342 1 -75.589896083380 -11.429424389783 -7.918537497740
343 1 -70.923853115373 -11.429424389783 -5.279024998493
344 1 -68.124227334493 -11.429424389783 -5.279024998493
345 1 -66.257810147177 -13.715309267739 -6.598781248129
346 1 -64.391392960050 -13.715309267739 -11.877806246622
347 1 -57.858932804537 -13.715309267739 -6.598781248129
348 1 -55.992515617410 -11.429424389783 -7.918537497740
349 1 -55.059307023847 -13.715309267739 -6.598781248129
350 1 -45.727221087453 -13.715309267739 -9.238293747375
351 1 -43.860803900327 -13.715309267739 -6.598781248129
352 1 -41.994386713010 -11.429424389783 -7.918537497740
353 1 -40.127969525693 -13.715309267739 -9.238293747375
354 1 -39.194760932130 -13.715309267739 -11.877806246622
355 1 -37.328343745004 -11.429424389783 -5.279024998493
356 1 -27.996257808610 -11.429424389783 -7.918537497740
357 1 -26.129840621483 -13.715309267739 -9.238293747375
358 1 -24.263423434167 -11.429424389783 -10.558049996987
359 1 -17.730963278843 -11.429424389783 -5.279024998493
360 1 -12.131711717083 -11.429424389783 -5.279024998493
361 1 -10.265294529766 -11.429424389783 -10.558049996987
362 1 -9.332085936203 -13.715309267739 -9.238293747375
363 1 -9.332085936203 -11.429424389783 -5.279024998493
364 1 -4.666042968197 -11.429424389783 -10.558049996987
365 1 -2.799625780880 -11.429424389783 -7.918537497740
366 1 -0.933208593563 -11.429424389783 -5.279024998493
367 1 0.933208593563 -11.429424389783 -10.558049996987
368 1 5.599251561760 -11.429424389783 -7.918537497740
369 1 15.864546091527 -11.429424389783 -5.279024998493
370 1 18.664171872407 -11.429424389783 -5.279024998493
371 1 23.330214840603 -11.429424389783 -10.558049996987
372 1 27.063049215047 -13.715309267739 -9.238293747375
373 1 28.929466402363 -11.429424389783 -10.558049996987
374 1 32.662300776807 -13.715309267739 -9.238293747375
375 1 36.395135151250 -13.715309267739 -11.877806246622
376 1 37.328343745004 -13.715309267739 -6.598781248129
377 1 39.194760932130 -11.429424389783 -7.918537497740
378 1 41.061178119447 -11.429424389783 -5.279024998493
379 1 59.725349991853 -11.429424389783 -10.558049996987
380 1 61.591767179170 -13.715309267739 -11.877806246622
381 1 63.458184366297 -13.715309267739 -9.238293747375
382 1 66.257810147177 -11.429424389783 -5.279024998493
383 1 68.124227334493 -13.715309267739 -6.598781248129
384 1 68.124227334493 -11.429424389783 -10.558049996987
385 1 72.790270302500 -13.715309267739 -11.877806246622
386 1 76.523104677133 -11.429424389783 -10.558049996987
387 1 77.456313270697 -11.429424389783 -5.279024998493
388 1 85.855190613337 -11.429424389783 -5.279024998493
389 1 89.588024987780 -13.715309267739 -11.877806246622
390 1 89.588024987780 -11.429424389783 -7.918537497740
391 1 93.320859362223 -13.715309267739 -6.598781248129
392 1 -93.320859362223 -9.143539511826 -9.238293747375
393 1 -92.387650768660 -6.857654633870 -7.918537497740
394 1 -83.988773426020 -9.143539511826 -11.877806246622
395 1 -78.389521864260 -9.143539511826 -11.877806246622
396 1 -78.389521864260 -6.857654633870 -7.918537497740
397 1 -68.124227334493 -6.857654633870 -5.279024998493
398 1 -66.257810147177 -6.857654633870 -10.558049996987
399 1 -65.324601553613 -6.857654633870 -5.279024998493
400 1 -64.391392960050 -6.857654633870 -7.918537497740
401 1 -60.658558585417 -9.143539511826 -6.598781248129
402 1 -58.792141398290 -9.143539511826 -11.877806246622
403 1 -56.925724210973 -9.143539511826 -9.238293747375
404 1 -55.992515617410 -9.143539511826 -11.877806246622
405 1 -53.192889836530 -9.143539511826 -11.877806246622
406 1 -45.727221087453 -6.857654633870 -5.279024998493
407 1 -44.794012493890 -9.143539511826 -11.877806246622
408 1 -44.794012493890 -6.857654633870 -7.918537497740
409 1 -42.927595306573 -6.857654633870 -5.279024998493
410 1 -40.127969525693 -9.143539511826 -9.238293747375
411 1 -39.194760932130 -6.857654633870 -7.918537497740
412 1 -33.595509370370 -9.143539511826 -11.877806246622
413 1 -21.463797653287 -9.143539511826 -6.598781248129
414 1 -17.730963278843 -9.143539511826 -9.238293747375
415 1 -13.064920310647 -9.143539511826 -6.598781248129
416 1 -10.265294529766 -9.143539511826 -6.598781248129
417 1 -8.398877342640 -6.857654633870 -7.918537497740
418 1 -6.532460155323 -9.143539511826 -9.238293747375
419 1 -4.666042968197 -6.857654633870 -10.558049996987
420 1 6.532460155323 -9.143539511826 -6.598781248129
421 1 7.465668749077 -9.143539511826 -9.238293747375
422 1 9.332085936203 -6.857654633870 -10.558049996987
423 1 11.198503123520 -9.143539511826 -11.877806246622
424 1 13.064920310647 -9.143539511826 -9.238293747375
425 1 13.064920310647 -6.857654633870 -5.279024998493
426 1 16.797754685280 -9.143539511826 -11.877806246622
427 1 16.797754685280 -6.857654633870 -7.918537497740
428 1 26.129840621483 -6.857654633870 -10.558049996987
429 1 27.063049215047 -9.143539511826 -9.238293747375
430 1 27.996257808610 -6.857654633870 -7.918537497740
431 1 47.593638274770 -9.143539511826 -11.877806246622
432 1 57.858932804536 -9.143539511826 -9.238293747375
433 1 61.591767179170 -9.143539511826 -11.877806246622
434 1 62.524975772733 -6.857654633870 -10.558049996987
435 1 68.124227334493 -6.857654633870 -10.558049996987
436 1 74.656687489817 -6.857654633870 -5.279024998493
437 1 78.389521864260 -6.857654633870 -7.918537497740
438 1 81.189147645140 -6.857654633870 -7.918537497740
439 1 84.921982019774 -6.857654633870 -10.558049996987
440 1 87.721607800463 -9.143539511826 -6.598781248129
441 1 89.588024987780 -9.143539511826 -11.877806246622
442 1 89.588024987780 -6.857654633870 -7.918537497740
443 1 92.387650768660 -9.143539511826 -11.877806246622
444 1 -83.988773426020 -4.571769755913 -11.877806246622
445 1 -81.189147645140 -2.285884877957 -7.918537497740
446 1 -71.857061708937 -2.285884877957 -10.558049996987
447 1 -70.923853115373 -4.571769755913 -9.238293747375
448 1 -62.524975772733 -4.571769755913 -9.238293747375
449 1 -61.591767179170 -4.571769755913 -11.877806246622
450 1 -58.792141398290 -4.571769755913 -11.877806246622
451 1 -55.059307023847 -4.571769755913 -6.598781248129
452 1 -50.393264055650 -2.285884877957 -7.918537497740
453 1 -49.460055462087 -4.571769755913 -6.598781248129
454 1 -48.526846868333 -2.285884877957 -5.279024998493
455 1 -42.927595306573 -4.571769755913 -9.238293747375
456 1 -42.927595306573 -2.285884877957 -5.279024998493
457 1 -41.061178119447 -2.285884877957 -10.558049996987
458 1 -40.127969525693 -4.571769755913 -9.238293747375
459 1 -36.395135151250 -4.571769755913 -11.877806246622
460 1 -18.664171872407 -2.285884877957 -10.558049996987
461 1 -14.931337497963 -4.571769755913 -9.238293747375
462 1 -9.332085936203 -2.285884877957 -5.279024998493
463 1 1.866417187317 -4.571769755913 -9.238293747375
464 1 2.799625780880 -2.285884877957 -7.918537497740
465 1 5.599251561760 -2.285884877957 -7.918537497740
466 1 11.198503123520 -4.571769755913 -11.877806246622
467 1 26.129840621483 -2.285884877957 -10.558049996987
468 1 45.727221087453 -4.571769755913 -6.598781248129
469 1 47.593638274770 -2.285884877957 -7.918537497740
470 1 52.259681242967 -4.571769755913 -9.238293747375
471 1 55.059307023847 -2.285884877957 -5.279024998493
472 1 59.725349991853 -4.571769755913 -6.598781248129
473 1 61.591767179170 -2.285884877957 -7.918537497740
474 1 62.524975772733 -4.571769755913 -6.598781248129
475 1 70.923853115373 -2.285884877957 -10.558049996987
476 1 78.389521864260 -4.571769755913 -11.877806246622
477 1 88.654816394217 -2.285884877957 -5.279024998493
478 1 90.521233581343 -2.285884877957 -10.558049996987
479 1 -93.320859362223 2.285884877957 -5.279024998493
480 1 -86.788399206900 2.285884877957 -7.918537497740
481 1 -79.322730458013 2.285884877957 -5.279024998493
482 1 -72.790270302500 2.285884877957 -7.918537497740
483 1 -64.391392960050 0.000000000000 -11.877806246622
484 1 -59.725349991853 0.000000000000 -9.238293747375
485 1 -51.326472649213 0.000000000000 -9.238293747375
486 1 -50.393264055650 2.285884877957 -7.918537497740
487 1 -46.660429681207 2.285884877957 -10.558049996987
488 1 -44.794012493890 0.000000000000 -11.877806246622
489 1 -41.994386713010 2.285884877957 -7.918537497740
490 1 -37.328343745004 0.000000000000 -9.238293747375
491 1 -32.662300776807 0.000000000000 -6.598781248129
492 1 -30.795883589490 0.000000000000 -11.877806246622
493 1 -28.929466402363 0.000000000000 -9.238293747375
494 1 -27.063049215047 0.000000000000 -6.598781248129
495 1 -23.330214840603 0.000000000000 -9.238293747375
496 1 -18.664171872407 0.000000000000 -6.598781248129
497 1 -16.797754685280 0.000000000000 -11.877806246622
498 1 -14.931337497963 0.000000000000 -9.238293747375
499 1 -10.265294529766 0.000000000000 -6.598781248129
500 1 -4.666042968197 2.285884877957 -10.558049996987
501 1 -3.732834374443 2.285884877957 -5.279024998493
502 1 -0.933208593563 2.285884877957 -5.279024998493
503 1 8.398877342640 2.285884877957 -7.918537497740
504 1 9.332085936203 0.000000000000 -6.598781248129
505 1 16.797754685280 0.000000000000 -11.877806246622
506 1 20.530589059723 0.000000000000 -6.598781248129
507 1 22.397006247040 2.285884877957 -7.918537497740
508 1 24.263423434167 0.000000000000 -9.238293747375
509 1 29.862674995927 0.000000000000 -9.238293747375
510 1 31.729092183243 0.000000000000 -6.598781248129
511 1 33.595509370370 0.000000000000 -11.877806246622
512 1 34.528717964123 2.285884877957 -10.558049996987
513 1 41.994386713010 0.000000000000 -11.877806246622
514 1 50.393264055650 0.000000000000 -11.877806246622
515 1 53.192889836530 0.000000000000 -11.877806246622
516 1 57.858932804536 2.285884877957 -5.279024998493
517 1 58.792141398290 2.285884877957 -7.918537497740
518 1 74.656687489817 2.285884877957 -5.279024998493
519 1 76.523104677133 0.000000000000 -6.598781248129
520 1 82.122356238893 2.285884877957 -10.558049996987
521 1 86.788399206900 2.285884877957 -7.918537497740
522 1 93.320859362223 2.285884877957 -10.558049996987
523 1 -91.454442175097 4.571769755913 -6.598781248129
524 1 -91.454442175097 6.857654633870 -10.558049996987
525 1 -87.721607800463 6.857654633870 -5.279024998493
526 1 -86.788399206900 6.857654633870 -7.918537497740
527 1 -70.923853115373 4.571769755913 -9.238293747375
528 1 -64.391392960050 4.571769755913 -11.877806246622
529 1 -60.658558585417 4.571769755913 -6.598781248129
530 1 -57.858932804537 6.857654633870 -10.558049996987
531 1 -55.992515617410 6.857654633870 -7.918537497740
532 1 -55.059307023847 6.857654633870 -10.558049996987
533 1 -52.259681242967 6.857654633870 -10.558049996987
534 1 -48.526846868333 4.571769755913 -9.238293747375
535 1 -46.660429681207 4.571769755913 -6.598781248129
536 1 -42.927595306573 6.857654633870 -5.279024998493
537 1 -39.194760932130 6.857654633870 -7.918537497740
538 1 -31.729092183243 6.857654633870 -5.279024998493