# Bcc oriented X=[-111] Y=[101] Z=[12-1].

24480 atoms
3 atom types

-95.187276549540 95.187276549540 xlo xhi
-45.717697559130 45.717697559130 ylo yhi
-11.877806246622 11.877806246622 zlo zhi
0 0 0 xy xz yz

Masses

1 92.908 #Nb
2 180.95 #Ta
3 50.941 #V

Atoms # atomic

1 1 -95.187276549540 -45.717697559130 -11.877806246622
2 1 -95.187276549540 -43.431812681174 -7.918537497740
3 1 -94.254067955977 -45.717697559130 -6.598781248129
4 1 -90.521233581343 -45.717697559130 -9.238293747375
5 1 -83.055564832457 -45.717697559130 -6.598781248129
6 1 -83.055564832457 -43.431812681174 -10.558049996987
7 1 -79.322730458013 -45.717697559130 -9.238293747375
8 1 -76.523104677133 -45.717697559130 -9.238293747375
9 1 -66.257810147177 -45.717697559130 -6.598781248129
10 1 -66.257810147177 -43.431812681174 -10.558049996987
11 1 -63.458184366297 -43.431812681174 -10.558049996987
12 1 -62.524975772733 -45.717697559130 -9.238293747375
13 1 -57.858932804537 -45.717697559130 -6.598781248129
14 1 -57.858932804537 -43.431812681174 -10.558049996987
15 1 -54.126098430093 -45.717697559130 -9.238293747375
16 1 -52.259681242967 -43.431812681174 -10.558049996987
17 1 -48.526846868333 -43.431812681174 -5.279024998493
18 1 -39.194760932130 -43.431812681174 -7.918537497740
19 1 -37.328343745004 -43.431812681174 -5.279024998493
20 1 -35.461926557687 -43.431812681174 -10.558049996987
21 1 -27.996257808610 -45.717697559130 -11.877806246622
22 1 -22.397006247040 -43.431812681174 -7.918537497740
23 1 -16.797754685280 -43.431812681174 -7.918537497740
24 1 -10.265294529766 -45.717697559130 -6.598781248129
25 1 -2.799625780880 -45.717697559130 -11.877806246622
26 1 1.866417187317 -45.717697559130 -9.238293747375
27 1 3.732834374443 -43.431812681174 -10.558049996987
28 1 6.532460155323 -45.717697559130 -6.598781248129
29 1 8.398877342640 -45.717697559130 -11.877806246622
30 1 15.864546091527 -43.431812681174 -5.279024998493
31 1 21.463797653287 -45.717697559130 -9.238293747375
32 1 23.330214840603 -45.717697559130 -6.598781248129
33 1 26.129840621483 -45.717697559130 -6.598781248129
34 1 27.996257808610 -45.717697559130 -11.877806246622
35 1 33.595509370370 -45.717697559130 -11.877806246622
36 1 44.794012493890 -45.717697559130 -11.877806246622
37 1 47.593638274770 -45.717697559130 -11.877806246622
38 1 49.460055462087 -43.431812681174 -5.279024998493
39 1 53.192889836530 -43.431812681174 -7.918537497740
40 1 58.792141398290 -43.431812681174 -7.918537497740
41 1 62.524975772733 -43.431812681174 -10.558049996987
42 1 69.990644521810 -43.431812681174 -7.918537497740
43 1 70.923853115373 -45.717697559130 -6.598781248129
44 1 71.857061708937 -43.431812681174 -5.279024998493
45 1 75.589896083380 -45.717697559130 -11.877806246622
46 1 80.255939051577 -45.717697559130 -9.238293747375
47 1 83.988773426020 -45.717697559130 -11.877806246622
48 1 88.654816394217 -45.717697559130 -9.238293747375
49 1 88.654816394217 -43.431812681174 -5.279024998493
50 1 90.521233581343 -45.717697559130 -6.598781248129
51 1 92.387650768660 -43.431812681174 -7.918537497740
52 1 -95.187276549540 -38.860042925261 -7.918537497740
53 1 -88.654816394217 -41.145927803217 -6.598781248129
54 1 -85.855190613337 -41.145927803217 -6.598781248129
55 1 -83.055564832457 -38.860042925261 -10.558049996987
56 1 -81.189147645140 -41.145927803217 -11.877806246622
57 1 -73.723478896253 -41.145927803217 -9.238293747375
58 1 -71.857061708937 -41.145927803217 -6.598781248129
59 1 -64.391392960050 -38.860042925261 -7.918537497740
60 1 -63.458184366297 -41.145927803217 -6.598781248129
61 1 -55.992515617410 -41.145927803217 -11.877806246622
62 1 -49.460055462087 -41.145927803217 -6.598781248129
63 1 -48.526846868333 -38.860042925261 -5.279024998493
64 1 -47.593638274770 -41.145927803217 -11.877806246622
65 1 -46.660429681207 -41.145927803217 -6.598781248129
66 1 -38.261552338567 -38.860042925261 -10.558049996987
67 1 -32.662300776807 -38.860042925261 -10.558049996987
68 1 -26.129840621483 -38.860042925261 -5.279024998493
69 1 -25.196632027730 -38.860042925261 -7.918537497740
70 1 -13.998128904400 -38.860042925261 -7.918537497740
71 1 -1.866417187317 -38.860042925261 -10.558049996987
72 1 2.799625780880 -41.145927803217 -11.877806246622
73 1 2.799625780880 -38.860042925261 -7.918537497740
74 1 7.465668749077 -38.860042925261 -5.279024998493
75 1 19.597380466160 -41.145927803217 -11.877806246622
76 1 20.530589059723 -38.860042925261 -10.558049996987
77 1 23.330214840603 -41.145927803217 -6.598781248129
78 1 24.263423434167 -41.145927803217 -9.238293747375
79 1 40.127969525693 -41.145927803217 -6.598781248129
80 1 45.727221087453 -41.145927803217 -6.598781248129
81 1 48.526846868333 -38.860042925261 -10.558049996987
82 1 51.326472649213 -41.145927803217 -6.598781248129
83 1 53.192889836530 -38.860042925261 -7.918537497740
84 1 55.992515617410 -41.145927803217 -11.877806246622
85 1 57.858932804536 -41.145927803217 -9.238293747375
86 1 57.858932804536 -38.860042925261 -5.279024998493
87 1 61.591767179170 -38.860042925261 -7.918537497740
88 1 66.257810147177 -38.860042925261 -5.279024998493
89 1 69.057435928057 -38.860042925261 -5.279024998493
90 1 72.790270302500 -41.145927803217 -11.877806246622
91 1 73.723478896253 -38.860042925261 -10.558049996987
92 1 77.456313270697 -41.145927803217 -9.238293747375
93 1 78.389521864260 -41.145927803217 -11.877806246622
94 1 82.122356238893 -38.860042925261 -10.558049996987
95 1 83.988773426020 -41.145927803217 -11.877806246622
96 1 84.921982019774 -38.860042925261 -10.558049996987
97 1 87.721607800463 -38.860042925261 -10.558049996987
98 1 88.654816394217 -38.860042925261 -5.279024998493
99 1 -95.187276549540 -36.574158047304 -11.877806246622
100 1 -93.320859362223 -36.574158047304 -9.238293747375
101 1 -80.255939051577 -36.574158047304 -6.598781248129
102 1 -79.322730458013 -36.574158047304 -9.238293747375
103 1 -78.389521864260 -36.574158047304 -11.877806246622
104 1 -71.857061708937 -34.288273169348 -10.558049996987
105 1 -58.792141398290 -34.288273169348 -7.918537497740
106 1 -51.326472649213 -34.288273169348 -5.279024998493
107 1 -50.393264055650 -36.574158047304 -11.877806246622
108 1 -46.660429681207 -36.574158047304 -6.598781248129
109 1 -44.794012493890 -34.288273169348 -7.918537497740
110 1 -43.860803900327 -34.288273169348 -10.558049996987
111 1 -40.127969525693 -34.288273169348 -5.279024998493
112 1 -36.395135151250 -34.288273169348 -7.918537497740
113 1 -33.595509370370 -34.288273169348 -7.918537497740
114 1 -27.996257808610 -36.574158047304 -11.877806246622
115 1 -26.129840621483 -36.574158047304 -9.238293747375
116 1 -19.597380466160 -36.574158047304 -11.877806246622
117 1 -15.864546091527 -36.574158047304 -6.598781248129
118 1 -7.465668749077 -34.288273169348 -10.558049996987
119 1 -4.666042968197 -34.288273169348 -10.558049996987
120 1 -1.866417187317 -34.288273169348 -10.558049996987
121 1 0.933208593563 -34.288273169348 -10.558049996987
122 1 1.866417187317 -36.574158047304 -9.238293747375
123 1 9.332085936203 -36.574158047304 -6.598781248129
124 1 14.931337497963 -36.574158047304 -6.598781248129
125 1 14.931337497963 -34.288273169348 -10.558049996987
126 1 18.664171872407 -36.574158047304 -9.238293747375
127 1 19.597380466160 -34.288273169348 -7.918537497740
128 1 21.463797653287 -34.288273169348 -5.279024998493
129 1 27.996257808610 -36.574158047304 -11.877806246622
130 1 40.127969525693 -34.288273169348 -10.558049996987
131 1 43.860803900327 -34.288273169348 -5.279024998493
132 1 53.192889836530 -36.574158047304 -11.877806246622
133 1 60.658558585417 -36.574158047304 -9.238293747375
134 1 66.257810147177 -36.574158047304 -9.238293747375
135 1 82.122356238893 -36.574158047304 -6.598781248129
136 1 83.055564832457 -36.574158047304 -9.238293747375
137 1 85.855190613337 -34.288273169348 -5.279024998493
138 1 88.654816394217 -34.288273169348 -5.279024998493
139 1 90.521233581343 -36.574158047304 -6.598781248129
140 1 -95.187276549540 -29.716503413435 -7.918537497740
141 1 -90.521233581343 -29.716503413435 -5.279024998493
142 1 -86.788399206900 -32.002388291391 -11.877806246622
143 1 -78.389521864260 -32.002388291391 -11.877806246622
144 1 -78.389521864260 -29.716503413435 -7.918537497740
145 1 -76.523104677133 -29.716503413435 -5.279024998493
146 1 -75.589896083380 -29.716503413435 -7.918537497740
147 1 -74.656687489817 -29.716503413435 -10.558049996987
148 1 -69.057435928057 -29.716503413435 -10.558049996987
149 1 -67.191018740930 -32.002388291391 -11.877806246622
150 1 -65.324601553613 -29.716503413435 -5.279024998493
151 1 -61.591767179170 -29.716503413435 -7.918537497740
152 1 -55.992515617410 -29.716503413435 -7.918537497740
153 1 -53.192889836530 -29.716503413435 -7.918537497740
154 1 -50.393264055650 -32.002388291391 -11.877806246622
155 1 -49.460055462087 -32.002388291391 -6.598781248129
156 1 -48.526846868333 -32.002388291391 -9.238293747375
157 1 -42.927595306573 -29.716503413435 -5.279024998493
158 1 -41.061178119447 -32.002388291391 -6.598781248129
159 1 -27.063049215047 -29.716503413435 -10.558049996987
160 1 -22.397006247040 -32.002388291391 -11.877806246622
161 1 -21.463797653287 -29.716503413435 -10.558049996987
162 1 -13.998128904400 -29.716503413435 -7.918537497740
163 1 -12.131711717083 -29.716503413435 -5.279024998493
164 1 -3.732834374443 -29.716503413435 -5.279024998493
165 1 -0.933208593563 -32.002388291391 -9.238293747375
166 1 -0.933208593563 -29.716503413435 -5.279024998493
167 1 7.465668749077 -29.716503413435 -5.279024998493
168 1 11.198503123520 -32.002388291391 -11.877806246622
169 1 11.198503123520 -29.716503413435 -7.918537497740
170 1 12.131711717083 -32.002388291391 -6.598781248129
171 1 13.998128904400 -32.002388291391 -11.877806246622
172 1 13.998128904400 -29.716503413435 -7.918537497740
173 1 27.996257808610 -29.716503413435 -7.918537497740
174 1 30.795883589490 -29.716503413435 -7.918537497740
175 1 31.729092183243 -32.002388291391 -6.598781248129
176 1 31.729092183243 -29.716503413435 -10.558049996987
177 1 36.395135151250 -29.716503413435 -7.918537497740
178 1 38.261552338567 -32.002388291391 -9.238293747375
179 1 40.127969525693 -32.002388291391 -6.598781248129
180 1 41.994386713010 -32.002388291391 -11.877806246622
181 1 42.927595306573 -29.716503413435 -10.558049996987
182 1 44.794012493890 -32.002388291391 -11.877806246622
183 1 49.460055462087 -32.002388291391 -9.238293747375
184 1 65.324601553613 -32.002388291391 -6.598781248129
185 1 67.191018740930 -32.002388291391 -11.877806246622
186 1 68.124227334493 -32.002388291391 -6.598781248129
187 1 69.990644521810 -29.716503413435 -7.918537497740
188 1 75.589896083380 -29.716503413435 -7.918537497740
189 1 77.456313270697 -32.002388291391 -9.238293747375
190 1 80.255939051577 -32.002388291391 -9.238293747375
191 1 84.921982019774 -29.716503413435 -10.558049996987
192 1 -95.187276549540 -25.144733657522 -7.918537497740
193 1 -92.387650768660 -27.430618535478 -11.877806246622
194 1 -91.454442175097 -25.144733657522 -10.558049996987
195 1 -84.921982019774 -27.430618535478 -9.238293747375
196 1 -83.055564832457 -27.430618535478 -6.598781248129
197 1 -76.523104677133 -27.430618535478 -9.238293747375
198 1 -73.723478896253 -25.144733657522 -5.279024998493
199 1 -69.990644521810 -27.430618535478 -11.877806246622
200 1 -68.124227334493 -27.430618535478 -9.238293747375
201 1 -68.124227334493 -25.144733657522 -5.279024998493
202 1 -67.191018740930 -27.430618535478 -11.877806246622
203 1 -60.658558585417 -25.144733657522 -10.558049996987
204 1 -57.858932804537 -25.144733657522 -10.558049996987
205 1 -53.192889836530 -27.430618535478 -11.877806246622
206 1 -52.259681242967 -27.430618535478 -6.598781248129
207 1 -47.593638274770 -27.430618535478 -11.877806246622
208 1 -42.927595306573 -25.144733657522 -5.279024998493
209 1 -38.261552338567 -25.144733657522 -10.558049996987
210 1 -35.461926557687 -25.144733657522 -10.558049996987
211 1 -28.929466402363 -27.430618535478 -9.238293747375
212 1 -27.063049215047 -27.430618535478 -6.598781248129
213 1 -26.129840621483 -25.144733657522 -5.279024998493
214 1 -12.131711717083 -27.430618535478 -9.238293747375
215 1 -11.198503123520 -25.144733657522 -7.918537497740
216 1 -9.332085936203 -25.144733657522 -5.279024998493
217 1 -7.465668749077 -27.430618535478 -6.598781248129
218 1 -7.465668749077 -25.144733657522 -10.558049996987
219 1 -0.933208593563 -25.144733657522 -5.279024998493
220 1 0.933208593563 -25.144733657522 -10.558049996987
221 1 1.866417187317 -27.430618535478 -9.238293747375
222 1 7.465668749077 -25.144733657522 -5.279024998493
223 1 11.198503123520 -25.144733657522 -7.918537497740
224 1 12.131711717083 -27.430618535478 -6.598781248129
225 1 19.597380466160 -25.144733657522 -7.918537497740
226 1 23.330214840603 -27.430618535478 -6.598781248129
227 1 24.263423434167 -27.430618535478 -9.238293747375
228 1 27.996257808610 -25.144733657522 -7.918537497740
229 1 29.862674995927 -25.144733657522 -5.279024998493
230 1 30.795883589490 -27.430618535478 -11.877806246622
231 1 31.729092183243 -25.144733657522 -10.558049996987
232 1 32.662300776807 -25.144733657522 -5.279024998493
233 1 38.261552338567 -25.144733657522 -5.279024998493
234 1 46.660429681207 -25.144733657522 -5.279024998493
235 1 50.393264055650 -25.144733657522 -7.918537497740
236 1 55.059307023847 -27.430618535478 -9.238293747375
237 1 56.925724210973 -25.144733657522 -10.558049996987
238 1 62.524975772733 -27.430618535478 -6.598781248129
239 1 66.257810147177 -25.144733657522 -5.279024998493
240 1 76.523104677133 -25.144733657522 -10.558049996987
241 1 77.456313270697 -27.430618535478 -9.238293747375
242 1 83.055564832457 -25.144733657522 -5.279024998493
243 1 83.988773426020 -25.144733657522 -7.918537497740
244 1 92.387650768660 -25.144733657522 -7.918537497740
245 1 -93.320859362223 -22.858848779565 -9.238293747375
246 1 -92.387650768660 -22.858848779565 -11.877806246622
247 1 -92.387650768660 -20.572963901609 -7.918537497740
248 1 -72.790270302500 -22.858848779565 -11.877806246622
249 1 -66.257810147177 -20.572963901609 -10.558049996987
250 1 -55.059307023847 -20.572963901609 -10.558049996987
251 1 -51.326472649213 -20.572963901609 -5.279024998493
252 1 -41.994386713010 -20.572963901609 -7.918537497740
253 1 -40.127969525693 -22.858848779565 -9.238293747375
254 1 -38.261552338567 -22.858848779565 -6.598781248129
255 1 -29.862674995927 -22.858848779565 -6.598781248129
256 1 -27.996257808610 -20.572963901609 -7.918537497740
257 1 -26.129840621483 -20.572963901609 -5.279024998493
258 1 -23.330214840603 -22.858848779565 -9.238293747375
259 1 -22.397006247040 -20.572963901609 -7.918537497740
260 1 -2.799625780880 -22.858848779565 -11.877806246622
261 1 1.866417187317 -20.572963901609 -5.279024998493
262 1 13.064920310647 -20.572963901609 -5.279024998493
263 1 21.463797653287 -22.858848779565 -9.238293747375
264 1 21.463797653287 -20.572963901609 -5.279024998493
265 1 26.129840621483 -20.572963901609 -10.558049996987
266 1 28.929466402363 -20.572963901609 -10.558049996987
267 1 31.729092183243 -20.572963901609 -10.558049996987
268 1 32.662300776807 -20.572963901609 -5.279024998493
269 1 35.461926557687 -22.858848779565 -9.238293747375
270 1 37.328343745004 -22.858848779565 -6.598781248129
271 1 41.061178119447 -22.858848779565 -9.238293747375
272 1 50.393264055650 -20.572963901609 -7.918537497740
273 1 51.326472649213 -22.858848779565 -6.598781248129
274 1 53.192889836530 -22.858848779565 -11.877806246622
275 1 54.126098430093 -22.858848779565 -6.598781248129
276 1 57.858932804536 -20.572963901609 -5.279024998493
277 1 64.391392960050 -22.858848779565 -11.877806246622
278 1 71.857061708937 -22.858848779565 -9.238293747375
279 1 73.723478896253 -20.572963901609 -10.558049996987
280 1 75.589896083380 -20.572963901609 -7.918537497740
281 1 76.523104677133 -22.858848779565 -6.598781248129
282 1 79.322730458013 -22.858848779565 -6.598781248129
283 1 89.588024987780 -20.572963901609 -7.918537497740
284 1 -94.254067955977 -18.287079023652 -6.598781248129
285 1 -84.921982019774 -16.001194145696 -5.279024998493
286 1 -77.456313270697 -18.287079023652 -6.598781248129
287 1 -75.589896083380 -18.287079023652 -11.877806246622
288 1 -72.790270302500 -16.001194145696 -7.918537497740
289 1 -71.857061708937 -18.287079023652 -6.598781248129
290 1 -69.057435928057 -16.001194145696 -10.558049996987
291 1 -67.191018740930 -18.287079023652 -11.877806246622
292 1 -47.593638274770 -18.287079023652 -11.877806246622
293 1 -33.595509370370 -18.287079023652 -11.877806246622
294 1 -30.795883589490 -16.001194145696 -7.918537497740
295 1 -25.196632027730 -16.001194145696 -7.918537497740
296 1 -18.664171872407 -18.287079023652 -6.598781248129
297 1 -11.198503123520 -18.287079023652 -11.877806246622
298 1 -10.265294529766 -16.001194145696 -10.558049996987
299 1 -5.599251561760 -18.287079023652 -11.877806246622
300 1 0.933208593563 -16.001194145696 -10.558049996987
301 1 8.398877342640 -18.287079023652 -11.877806246622
302 1 10.265294529767 -16.001194145696 -5.279024998493
303 1 12.131711717083 -18.287079023652 -6.598781248129
304 1 13.998128904400 -16.001194145696 -7.918537497740
305 1 17.730963278843 -16.001194145696 -10.558049996987
306 1 24.263423434167 -18.287079023652 -9.238293747375
307 1 26.129840621483 -18.287079023652 -6.598781248129
308 1 30.795883589490 -18.287079023652 -11.877806246622
309 1 31.729092183243 -18.287079023652 -6.598781248129
310 1 33.595509370370 -18.287079023652 -11.877806246622
311 1 40.127969525693 -16.001194145696 -10.558049996987
312 1 41.061178119447 -18.287079023652 -9.238293747375
313 1 43.860803900327 -18.287079023652 -9.238293747375
314 1 47.593638274770 -18.287079023652 -11.877806246622
315 1 49.460055462087 -18.287079023652 -9.238293747375
316 1 49.460055462087 -16.001194145696 -5.279024998493
317 1 51.326472649213 -16.001194145696 -10.558049996987
318 1 56.925724210973 -18.287079023652 -6.598781248129
319 1 69.990644521810 -16.001194145696 -7.918537497740
320 1 72.790270302500 -16.001194145696 -7.918537497740
321 1 75.589896083380 -18.287079023652 -11.877806246622
322 1 76.523104677133 -18.287079023652 -6.598781248129
323 1 77.456313270697 -16.001194145696 -5.279024998493
324 1 80.255939051577 -18.287079023652 -9.238293747375
325 1 83.055564832457 -16.001194145696 -5.279024998493
326 1 89.588024987780 -16.001194145696 -7.918537497740
327 1 90.521233581343 -18.287079023652 -6.598781248129
328 1 92.387650768660 -16.001194145696 -7.918537497740
329 1 -91.454442175097 -11.429424389783 -10.558049996987
330 1 -89.588024987780 -13.715309267739 -11.877806246622
331 1 -85.855190613337 -13.715309267739 -6.598781248129
332 1 -83.055564832457 -11.429424389783 -10.558049996987
333 1 -82.122356238893 -13.715309267739 -9.238293747375
334 1 -81.189147645140 -13.715309267739 -11.877806246622
335 1 -80.255939051577 -11.429424389783 -10.558049996987
336 1 -77.456313270697 -11.429424389783 -10.558049996987
337 1 -75.589896083380 -13.715309267739 -11.877806246622
338 1 -73.723478896253 -11.429424389783 -5.279024998493
339 1 -72.790270302500 -11.429424389783 -7.918537497740
340 1 -69.990644521810 -13.715309267739 -11.877806246622
341 1 -67.191018740930 -13.715309267739 -11.877806246622
342 1 -61.591767179170 -11.429424389783 -7.918537497740
343 1 -56.925724210973 -11.429424389783 -5.279024998493
344 1 -45.727221087453 -11.429424389783 -5.279024998493
345 1 -44.794012493890 -13.715309267739 -11.877806246622
346 1 -32.662300776807 -11.429424389783 -10.558049996987
347 1 -30.795883589490 -13.715309267739 -11.877806246622
348 1 -27.996257808610 -11.429424389783 -7.918537497740
349 1 -23.330214840603 -13.715309267739 -9.238293747375
350 1 -19.597380466160 -11.429424389783 -7.918537497740
351 1 -9.332085936203 -13.715309267739 -9.238293747375
352 1 0.000000000000 -11.429424389783 -7.918537497740
353 1 13.064920310647 -11.429424389783 -5.279024998493
354 1 14.931337497963 -13.715309267739 -6.598781248129
355 1 15.864546091527 -11.429424389783 -5.279024998493
356 1 23.330214840603 -13.715309267739 -6.598781248129
357 1 27.996257808610 -13.715309267739 -11.877806246622
358 1 34.528717964123 -13.715309267739 -6.598781248129
359 1 38.261552338567 -11.429424389783 -5.279024998493
360 1 41.994386713010 -13.715309267739 -11.877806246622
361 1 46.660429681207 -13.715309267739 -9.238293747375
362 1 48.526846868333 -11.429424389783 -10.558049996987
363 1 49.460055462087 -13.715309267739 -9.238293747375
364 1 50.393264055650 -11.429424389783 -7.918537497740
365 1 51.326472649213 -13.715309267739 -6.598781248129
366 1 54.126098430093 -11.429424389783 -10.558049996987
367 1 59.725349991853 -13.715309267739 -6.598781248129
368 1 66.257810147177 -13.715309267739 -9.238293747375
369 1 68.124227334493 -13.715309267739 -6.598781248129
370 1 72.790270302500 -13.715309267739 -11.877806246622
371 1 72.790270302500 -11.429424389783 -7.918537497740
372 1 75.589896083380 -13.715309267739 -11.877806246622
373 1 86.788399206900 -13.715309267739 -11.877806246622
374 1 92.387650768660 -13.715309267739 -11.877806246622
375 1 92.387650768660 -11.429424389783 -7.918537497740
376 1 94.254067955977 -11.429424389783 -5.279024998493
377 1 -95.187276549540 -6.857654633870 -7.918537497740
378 1 -93.320859362223 -6.857654633870 -5.279024998493
379 1 -83.988773426020 -9.143539511826 -11.877806246622
380 1 -81.189147645140 -9.143539511826 -11.877806246622
381 1 -73.723478896253 -9.143539511826 -9.238293747375
382 1 -65.324601553613 -9.143539511826 -9.238293747375
383 1 -62.524975772733 -9.143539511826 -9.238293747375
384 1 -61.591767179170 -9.143539511826 -11.877806246622
385 1 -55.992515617410 -9.143539511826 -11.877806246622
386 1 -55.059307023847 -6.857654633870 -10.558049996987
387 1 -52.259681242967 -9.143539511826 -6.598781248129
388 1 -51.326472649213 -9.143539511826 -9.238293747375
389 1 -45.727221087453 -9.143539511826 -9.238293747375
390 1 -44.794012493890 -9.143539511826 -11.877806246622
391 1 -43.860803900327 -6.857654633870 -10.558049996987
392 1 -40.127969525693 -6.857654633870 -5.279024998493
393 1 -38.261552338567 -6.857654633870 -10.558049996987
394 1 -34.528717964123 -9.143539511826 -9.238293747375
395 1 -33.595509370370 -9.143539511826 -11.877806246622
396 1 -33.595509370370 -6.857654633870 -7.918537497740
397 1 -26.129840621483 -6.857654633870 -5.279024998493
398 1 -22.397006247040 -6.857654633870 -7.918537497740
399 1 -7.465668749077 -9.143539511826 -6.598781248129
400 1 -5.599251561760 -9.143539511826 -11.877806246622
401 1 6.532460155323 -9.143539511826 -6.598781248129
402 1 10.265294529767 -9.143539511826 -9.238293747375
403 1 17.730963278843 -9.143539511826 -6.598781248129
404 1 20.530589059723 -6.857654633870 -10.558049996987
405 1 23.330214840603 -9.143539511826 -6.598781248129
406 1 27.063049215047 -6.857654633870 -5.279024998493
407 1 29.862674995927 -9.143539511826 -9.238293747375
408 1 35.461926557687 -6.857654633870 -5.279024998493
409 1 36.395135151250 -9.143539511826 -11.877806246622
410 1 43.860803900327 -6.857654633870 -5.279024998493
411 1 50.393264055650 -6.857654633870 -7.918537497740
412 1 60.658558585417 -9.143539511826 -9.238293747375
413 1 63.458184366297 -9.143539511826 -9.238293747375
414 1 67.191018740930 -9.143539511826 -11.877806246622
415 1 72.790270302500 -6.857654633870 -7.918537497740
416 1 74.656687489817 -6.857654633870 -5.279024998493
417 1 81.189147645140 -9.143539511826 -11.877806246622
418 1 82.122356238893 -6.857654633870 -10.558049996987
419 1 83.055564832457 -9.143539511826 -9.238293747375
420 1 85.855190613337 -9.143539511826 -9.238293747375
421 1 88.654816394217 -9.143539511826 -9.238293747375
422 1 89.588024987780 -6.857654633870 -7.918537497740
423 1 92.387650768660 -9.143539511826 -11.877806246622
424 1 -94.254067955977 -2.285884877957 -10.558049996987
425 1 -92.387650768660 -2.285884877957 -7.918537497740
426 1 -90.521233581343 -2.285884877957 -5.279024998493
427 1 -86.788399206900 -2.285884877957 -7.918537497740
428 1 -80.255939051577 -4.571769755913 -6.598781248129
429 1 -78.389521864260 -4.571769755913 -11.877806246622
430 1 -77.456313270697 -4.571769755913 -6.598781248129
431 1 -73.723478896253 -4.571769755913 -9.238293747375
432 1 -70.923853115373 -4.571769755913 -9.238293747375
433 1 -68.124227334493 -2.285884877957 -5.279024998493
434 1 -65.324601553613 -4.571769755913 -9.238293747375
435 1 -65.324601553613 -2.285884877957 -5.279024998493
436 1 -60.658558585417 -2.285884877957 -10.558049996987
437 1 -59.725349991853 -4.571769755913 -9.238293747375
438 1 -54.126098430093 -4.571769755913 -9.238293747375
439 1 -52.259681242967 -4.571769755913 -6.598781248129
440 1 -48.526846868333 -4.571769755913 -9.238293747375
441 1 -48.526846868333 -2.285884877957 -5.279024998493
442 1 -43.860803900327 -2.285884877957 -10.558049996987
443 1 -38.261552338567 -4.571769755913 -6.598781248129
444 1 -35.461926557687 -2.285884877957 -10.558049996987
445 1 -34.528717964123 -2.285884877957 -5.279024998493
446 1 -32.662300776807 -4.571769755913 -6.598781248129
447 1 -27.063049215047 -2.285884877957 -10.558049996987
448 1 -25.196632027730 -4.571769755913 -11.877806246622
449 1 -24.263423434167 -2.285884877957 -10.558049996987
450 1 -23.330214840603 -4.571769755913 -9.238293747375
451 1 -21.463797653287 -4.571769755913 -6.598781248129
452 1 -17.730963278843 -4.571769755913 -9.238293747375
453 1 -9.332085936203 -2.285884877957 -5.279024998493
454 1 -8.398877342640 -4.571769755913 -11.877806246622
455 1 -6.532460155323 -4.571769755913 -9.238293747375
456 1 -6.532460155323 -2.285884877957 -5.279024998493
457 1 2.799625780880 -2.285884877957 -7.918537497740
458 1 3.732834374443 -2.285884877957 -10.558049996987
459 1 11.198503123520 -2.285884877957 -7.918537497740
460 1 13.064920310647 -4.571769755913 -9.238293747375
461 1 13.998128904400 -2.285884877957 -7.918537497740
462 1 26.129840621483 -2.285884877957 -10.558049996987
463 1 28.929466402363 -2.285884877957 -10.558049996987
464 1 42.927595306573 -4.571769755913 -6.598781248129
465 1 46.660429681207 -4.571769755913 -9.238293747375
466 1 48.526846868333 -4.571769755913 -6.598781248129
467 1 52.259681242967 -2.285884877957 -5.279024998493
468 1 55.992515617410 -2.285884877957 -7.918537497740
469 1 65.324601553613 -2.285884877957 -10.558049996987
470 1 70.923853115373 -4.571769755913 -6.598781248129
471 1 73.723478896253 -2.285884877957 -10.558049996987
472 1 79.322730458013 -4.571769755913 -6.598781248129
473 1 82.122356238893 -4.571769755913 -6.598781248129
474 1 83.055564832457 -2.285884877957 -5.279024998493
475 1 84.921982019774 -2.285884877957 -10.558049996987
476 1 91.454442175097 -4.571769755913 -9.238293747375
477 1 92.387650768660 -4.571769755913 -11.877806246622
478 1 -88.654816394217 2.285884877957 -10.558049996987
479 1 -82.122356238893 0.000000000000 -9.238293747375
480 1 -82.122356238893 2.285884877957 -5.279024998493
481 1 -71.857061708937 0.000000000000 -6.598781248129
482 1 -69.990644521810 2.285884877957 -7.918537497740
483 1 -69.057435928057 2.285884877957 -10.558049996987
484 1 -57.858932804537 0.000000000000 -6.598781248129
485 1 -56.925724210973 0.000000000000 -9.238293747375
486 1 -50.393264055650 2.285884877957 -7.918537497740
487 1 -44.794012493890 0.000000000000 -11.877806246622
488 1 -34.528717964123 0.000000000000 -9.238293747375
489 1 -33.595509370370 2.285884877957 -7.918537497740
490 1 -31.729092183243 2.285884877957 -5.279024998493
491 1 -15.864546091527 0.000000000000 -6.598781248129
492 1 -14.931337497963 0.000000000000 -9.238293747375
493 1 -8.398877342640 2.285884877957 -7.918537497740
494 1 -6.532460155323 2.285884877957 -5.279024998493
495 1 -3.732834374443 2.285884877957 -5.279024998493
496 1 -2.799625780880 2.285884877957 -7.918537497740
497 1 1.866417187317 0.000000000000 -9.238293747375
498 1 3.732834374443 0.000000000000 -6.598781248129
499 1 9.332085936203 0.000000000000 -6.598781248129
500 1 13.064920310647 2.285884877957 -5.279024998493
501 1 13.998128904400 0.000000000000 -11.877806246622
502 1 14.931337497963 2.285884877957 -10.558049996987
503 1 19.597380466160 0.000000000000 -11.877806246622
504 1 30.795883589490 2.285884877957 -7.918537497740
505 1 31.729092183243 2.285884877957 -10.558049996987
506 1 33.595509370370 0.000000000000 -11.877806246622
507 1 33.595509370370 2.285884877957 -7.918537497740
508 1 43.860803900327 2.285884877957 -5.279024998493
509 1 49.460055462087 0.000000000000 -9.238293747375
510 1 49.460055462087 2.285884877957 -5.279024998493
511 1 50.393264055650 2.285884877957 -7.918537497740
512 1 53.192889836530 2.285884877957 -7.918537497740
513 1 63.458184366297 0.000000000000 -9.238293747375
514 1 69.990644521810 2.285884877957 -7.918537497740
515 1 72.790270302500 0.000000000000 -11.877806246622
516 1 83.988773426020 0.000000000000 -11.877806246622
517 1 87.721607800463 2.285884877957 -10.558049996987
518 1 93.320859362223 0.000000000000 -6.598781248129
519 1 -95.187276549540 4.571769755913 -11.877806246622
520 1 -85.855190613337 4.571769755913 -6.598781248129
521 1 -83.988773426020 6.857654633870 -7.918537497740
522 1 -81.189147645140 4.571769755913 -11.877806246622
523 1 -73.723478896253 4.571769755913 -9.238293747375
524 1 -70.923853115373 6.857654633870 -5.279024998493
525 1 -69.990644521810 4.571769755913 -11.877806246622
526 1 -69.990644521810 6.857654633870 -7.918537497740
527 1 -67.191018740930 4.571769755913 -11.877806246622
528 1 -67.191018740930 6.857654633870 -7.918537497740
529 1 -63.458184366297 6.857654633870 -10.558049996987
530 1 -60.658558585417 6.857654633870 -10.558049996987
531 1 -57.858932804537 6.857654633870 -10.558049996987
532 1 -54.126098430093 6.857654633870 -5.279024998493
533 1 -52.259681242967 6.857654633870 -10.558049996987
534 1 -46.660429681207 4.571769755913 -6.598781248129
535 1 -45.727221087453 4.571769755913 -9.238293747375
536 1 -40.127969525693 4.571769755913 -9.238293747375
537 1 -38.261552338567 6.857654633870 -10.558049996987
538 1 -30.795883589490 4.571769755913 -11.877806246622
539 1 -26.129840621483 6.857654633870 -5.279024998493