# Bcc oriented X=[-111] Y=[101] Z=[12-1].

24480 atoms
3 atom types

-95.18727654954 95.18727654954 xlo xhi
-45.71769755913 45.71769755913 ylo yhi
-11.877806246622 11.877806246622 zlo zhi
0 0 0 xy xz yz

Masses

1 92.908 #Nb
2 180.95 #Ta
3 50.941 #V

Atoms # atomic

23941 3 -70.88585173393227 -6.873666071522116 10.56268743675998 0 0 0
2 1 -88.62816000205923 -43.4345811767806 -10.617114725623797 0 0 0
3 1 -83.97797542219206 -43.384037457550434 -7.905366743308399 0 0 0
4 1 -79.30525540545656 -43.39242879504505 -5.2746762736759445 0 0 0
5 1 -74.68547543155452 -43.41508874418684 -10.57008757711495 0 0 0
6 1 -72.77624604969226 -45.6838781454776 11.86818268611843 0 0 -1
7 1 -69.97557466468507 -43.39162993599679 -7.928237752073265 0 0 0
8 1 -61.588544262495176 -43.42716211543275 -7.951231699316382 0 0 0
23940 3 -71.83410733361566 -6.861883278874139 5.277522242327414 0 0 0
23939 3 -83.99640651477023 -9.12137499889036 3.9420273952528646 0 0 0
11 1 -55.07644373327968 -43.436742605276685 -10.62492669985335 0 0 0
23938 3 -89.5782274465041 -6.869149907637741 7.878525636046199 0 0 0
23937 3 -94.21762445874161 -6.8621966569874004 5.318722465363969 0 0 0
14 1 -45.803576519733625 -45.699768759253665 -9.208176629410461 0 0 0
15 1 -44.828919970766 -45.71264713563844 -11.845811145087296 0 0 0
16 1 -44.84570246346954 -43.41935184907232 -7.965511656965001 0 0 0
17 1 -39.175411143965434 -43.40499671561996 -7.935825021100958 0 0 0
18 1 -38.261179549092745 -43.45586370695591 -10.558502907478871 0 0 0
38 1 -79.2650014238903 -41.10024401702702 -9.26303549973376 0 0 0
39 1 -74.63779507828427 -38.85156669505774 -10.588660496278106 0 0 0
40 1 -72.78005577666858 -41.122812811734384 11.769028947522344 0 0 -1
41 1 -63.50960043979403 -41.10935982555592 -6.655683132133707 0 0 0
42 1 -59.73697453101488 -38.8334800361966 -5.315968154301518 0 0 0
43 1 -57.895295230747664 -38.79447842529409 -10.595616217126262 0 0 0
44 1 -56.93362769156234 -38.82925506865678 -5.369074548025945 0 0 0
45 1 -56.02111833426889 -41.15889772216813 11.834343493669472 0 0 -1
46 1 -56.00353691840767 -38.83897515637061 -7.965878757623095 0 0 0
47 1 -55.11264201249406 -38.90916540123616 -10.592546461863313 0 0 0
48 1 -50.37750491657111 -38.86490596251595 -7.892858785518751 0 0 0
49 1 -49.4996298665897 -38.918731680151346 -10.599262033496231 0 0 0
50 1 -41.10061277217231 -41.091174667503154 -6.615098114060229 0 0 0
51 1 -33.63774710090509 -38.88512894033185 -7.939672315296733 0 0 0
52 1 -31.73936403752915 -38.91432669671565 -5.293194136576108 0 0 0
76 1 -93.29638702348227 -36.53170648755836 -9.296772937903263 0 0 0
77 1 -93.31850533166109 -34.253968375610526 -5.291936191417228 0 0 0
78 1 -88.62233120011835 -34.24574409762777 -10.577230189950566 0 0 0
79 1 -83.96214942788502 -34.256081379902774 -7.94236474672401 0 0 0
80 1 -73.7060046732743 -34.293192730608496 -5.297162241806519 0 0 0
81 1 -71.80818404339301 -34.222543182971094 -10.555524836426413 0 0 0
82 1 -69.95250789037215 -36.48432312587533 -11.857876215031496 0 0 0
83 1 -64.38603684421808 -34.24315801811841 -7.919269258069743 0 0 0
84 1 -56.04238138481302 -34.226869158532004 -7.95288694006574 0 0 0
85 1 -42.02547906882948 -34.283229494272575 -7.909288944431379 0 0 0
86 1 -38.30629720043849 -36.56082019047944 -6.552271327112761 0 0 0
87 1 -36.44652497946795 -34.238603296364175 -7.896664091209191 0 0 0
119 1 -93.3232016244944 -29.652345505486327 -5.288981863475154 0 0 0
120 1 -86.77143354350395 -29.677991730880354 -7.9350643056921175 0 0 0
121 1 -85.82326982663785 -29.673929171978944 -10.505100250154374 0 0 0
122 1 -81.13092948112664 -31.97350604570093 -11.830536038133284 0 0 0
123 1 -77.4728953259181 -31.944923206012433 -6.631179262678348 0 0 0
124 1 -77.4281952667981 -29.74121612407208 -10.574054258106147 0 0 0
125 1 -74.66783147179295 -29.681968438782004 -10.55373305037904 0 0 0
126 1 -73.74173013092377 -29.714194110221616 -5.309727672211034 0 0 0
127 1 -69.0699258368878 -31.972568172279853 -6.6440774767512005 0 0 0
128 1 -67.21588678045413 -29.710032471100853 -7.955692060432408 0 0 0
129 1 -63.49294317150889 -29.685442226818658 -10.561129095182148 0 0 0
130 1 -61.65179080338725 -32.011833131866624 -11.862161849047592 0 0 0
131 1 -61.619631000461446 -29.676295773457323 -7.882823679743926 0 0 0
132 1 -50.44541622737821 -31.974588786826207 11.850826307158098 0 0 -1
133 1 -45.75840855395194 -29.697890846931877 -5.274174521763435 0 0 0
134 1 -40.1843378262561 -31.983552629515238 -9.195934356912181 0 0 0
135 1 -35.506918534401294 -29.719527589270214 -10.600356758927612 0 0 0
166 1 -83.06176735475579 -25.1276662146899 -10.522467092263117 0 0 0
167 1 -81.1525975541438 -25.087406731624174 -7.880884648009495 0 0 0
168 1 -77.46471627049722 -27.43203006332689 -6.606965280335846 0 0 0
169 1 -75.57611384494957 -25.139827428402818 -7.890736359908024 0 0 0
170 1 -68.15409292978934 -27.435992726263617 -9.260673148108252 0 0 0
171 1 -64.40907907931494 -27.45693905668955 11.84894502431165 0 0 -1
172 1 -64.37550540540805 -25.19148347362774 -7.934838074409619 0 0 0
173 1 -62.53421371196757 -25.17439121602539 -5.211901740963275 0 0 0
174 1 -60.68940520587324 -25.17076352307343 -10.529334956391704 0 0 0
175 1 -58.828917359734675 -27.399430751177825 -11.863525621716196 0 0 0
176 1 -56.053384075845635 -25.07241878781787 -7.9252466664272125 0 0 0
177 1 -52.297161768706545 -25.15901343946931 -10.57033191162266 0 0 0
178 1 -51.36975100269399 -27.431887083175592 -9.233467500544236 0 0 0
179 1 -49.48490598939349 -25.172699446968327 -10.551590688005128 0 0 0
180 1 -45.77250617366974 -25.172840324272517 -5.289855098707147 0 0 0
181 1 -40.186156941306 -27.437190694908566 -9.233273684157329 0 0 0
182 1 -34.547975123235965 -27.470830194805515 -9.243420084368855 0 0 0
210 1 -94.25359207319002 -22.844399259136303 -6.6090813539124325 0 0 0
211 1 -90.54620647519252 -22.835422844450225 -9.228985061218722 0 0 0
212 1 -85.78579011881375 -22.831667690862552 -6.640661472373037 0 0 0
213 1 -85.89033544061087 -20.58703173554959 -10.583029362709802 0 0 0
214 1 -82.12710934672387 -20.52165749248894 -5.334535961104776 0 0 0
215 1 -81.1622033918813 -20.61939913739608 -7.892568315596499 0 0 0
216 1 -76.48305916593597 -22.871652834251655 -9.238541646226919 0 0 0
217 1 -69.96679749461754 -22.896734902767786 11.847447072298412 0 0 -1
218 1 -69.05697716976512 -20.607719325180533 -10.576100079769487 0 0 0
219 1 -68.11465407534419 -22.825276344708207 -9.254536873744676 0 0 0
220 1 -67.19703719977532 -20.536070537440704 -7.921854840623457 0 0 0
221 1 -65.32588162415419 -22.867256313948875 -9.27144234990698 0 0 0
222 1 -65.33747602062078 -20.592340252704865 -5.241412983508202 0 0 0
223 1 -59.66816717941705 -22.900300604118417 -9.22137430732086 0 0 0
224 1 -51.39285189689674 -22.842218280859893 -9.193594515979168 0 0 0
225 1 -50.40049088216067 -22.905845464612778 -11.84960263517252 0 0 0
226 1 -44.81659516141924 -20.5629342074994 -7.8722981226078454 0 0 0
227 1 -43.901392083092844 -22.8548367727257 -6.589933446752053 0 0 0
228 1 -39.24059845138668 -22.825582852405102 11.854539355297938 0 0 -1
229 1 -36.46518432850983 -22.827618384032323 -11.859836904000028 0 0 0
257 1 -88.65887636738266 -18.26869649289169 -6.621656847039952 0 0 0
258 1 -87.72791813004291 -15.98260387490248 -5.323546068480191 0 0 0
259 1 -84.010290752192 -18.254564440774725 11.858338691641283 0 0 -1
260 1 -83.96187832412747 -15.976407164700817 -7.925275544780642 0 0 0
261 1 -74.65093890417243 -18.307990389957652 -6.589129132089886 0 0 0
262 1 -72.74434933558044 -16.011791912266336 -7.927919351289585 0 0 0
263 1 -65.35897636210105 -15.945407591792168 -5.262188396404253 0 0 0
264 1 -60.648942266693375 -15.964960773511613 -10.547673385645954 0 0 0
265 1 -59.73553261094567 -15.948388496809251 -5.242468707882769 0 0 0
266 1 -49.54094286783295 -15.953013020030014 -10.548253351019783 0 0 0
267 1 -47.647449494857845 -15.964611320051503 -7.895710941954039 0 0 0
268 1 -44.83335000395145 -18.237009702340334 -11.859551515293381 0 0 0
269 1 -43.87195988344618 -15.965415998269563 -10.543995427937437 0 0 0
270 1 -42.968857979550975 -18.23326892040736 -9.199940810172658 0 0 0
271 1 -41.09559756712516 -18.26352653029279 -6.555148622979893 0 0 0
272 1 -39.225564997044344 -18.31074083172151 11.830968696892345 0 0 -1
24001 3 -35.462923200993195 -2.299100372382135 5.281573378851558 0 0 0
299 1 -87.72992870989343 -11.416557644236711 -5.318645194128109 0 0 0
300 1 -82.13563585703692 -11.444617495077509 -5.280590091319416 0 0 0
301 1 -78.45109019333351 -13.78658752427392 11.866672450349757 0 0 -1
302 1 -75.61998983140036 -11.390706217189155 -7.929705294203275 0 0 0
303 1 -72.74356920762766 -11.418096023451618 -7.948550276494905 0 0 0
304 1 -68.05766125376657 -13.70497062960041 -9.264310871114807 0 0 0
305 1 -65.32781341471639 -13.758860656353114 -9.242034803381866 0 0 0
306 1 -60.69027199635759 -11.436805261374786 -10.561013915634613 0 0 0
307 1 -59.741640671218114 -11.4341631168328 -5.188309595857665 0 0 0
308 1 -58.78903279119885 -11.461284583142984 -7.909880846743757 0 0 0
309 1 -56.95149458056683 -11.467717582999626 -5.2761940305690445 0 0 0
310 1 -56.04643344574154 -11.445118677717247 -7.9199612759092695 0 0 0
311 1 -52.33458459919771 -13.720986083470532 -6.558224502218634 0 0 0
312 1 -46.65585610593671 -13.741200759312363 -6.598857343029028 0 0 0
313 1 -37.35792121747885 -13.696622115936258 -9.178917745392255 0 0 0
314 1 -33.59451024625231 -13.64372746126638 11.870066237121346 0 0 -1
315 1 -32.717941704515354 -11.394030729389662 -10.601232141227937 0 0 0
316 1 -31.738731770100458 -11.388061143466238 -5.21686099344983 0 0 0
343 1 -92.3855974106852 -9.21017150932952 -11.872475504065147 0 0 0
344 1 -90.49461658357568 -6.905411187561789 -5.295787610204441 0 0 0
345 1 -82.15993668534122 -6.852205589831968 -5.26052142274232 0 0 0
346 1 -76.55154549439604 -9.14970907472376 -9.260336503902241 0 0 0
347 1 -76.56373086453624 -6.808913602251451 -5.1789717768101 0 0 0
348 1 -74.64861272392339 -9.122675307415278 -6.571763615612139 0 0 0
349 1 -71.82646568195725 -6.85319384807336 -10.559821891291415 0 0 0
350 1 -68.10572230344681 -6.858007639239524 -5.2684027398108695 0 0 0
351 1 -66.21350382179295 -6.929031399884984 -10.563311692902912 0 0 0
352 1 -47.598840827541444 -6.824831236709244 -7.950358238422671 0 0 0
353 1 -42.03475377097367 -6.861633188937056 -7.900399951648367 0 0 0
354 1 -34.57565326240864 -6.839434359425624 -5.279916132996229 0 0 0
24000 3 -40.17465255050475 -2.317678312021833 10.536265508377248 0 0 0
388 1 -93.30189661482558 -4.64982202380223 -9.220626782276376 0 0 0
389 1 -93.31183654544049 -2.3820206836848428 -5.232885322787354 0 0 0
390 1 -91.41972820007588 -4.637995435835748 -6.567576741809162 0 0 0
391 1 -83.00129132065076 -4.645577104230426 -6.60841717543172 0 0 0
392 1 -80.27180650107077 -2.3020839635127217 -10.532584236011518 0 0 0
393 1 -78.3369237607667 -4.551602573792465 -11.850440763969196 0 0 0
394 1 -63.45112995751555 -4.561719575656561 -6.590595700745915 0 0 0
395 1 -59.771605450692526 -2.2423366350775424 -5.262482404182975 0 0 0
396 1 -55.09111993292684 -2.2539839467884732 -10.531859772474428 0 0 0
397 1 -45.77927552146132 -2.3148859524173844 -5.338354656496186 0 0 0
398 1 -42.020470177839464 -2.2864862816390854 -7.928108124617245 0 0 0
399 1 -41.0947726406863 -2.3256251274382294 -10.564099012856232 0 0 0
400 1 -40.11803404450847 -4.544358359362441 -9.26527750322721 0 0 0
401 1 -32.74094241184151 -2.2982457580352786 -10.557008914137349 0 0 0
877 1 -88.69879530009189 -43.38719336970754 -2.6361145564969313 0 0 0
878 1 -86.77794524882444 -45.71023252732545 -3.9717307891185953 0 0 0
879 1 -86.78655384816247 -43.41668518727312 0.004582422820652354 0 0 0
880 1 -80.24989666529618 -43.434619440206 -2.6295048748764085 0 0 0
23936 3 -95.14999585876465 -6.897123986141622 7.891417534598723 0 0 0
882 1 -74.63071003219204 -43.413496988119135 -2.671839708140764 0 0 0
883 1 -70.90016683855663 -43.433653779904034 2.6947122007315425 0 0 0
884 1 -63.47536514571159 -43.4522071296461 -2.648846798169213 0 0 0
23909 3 -31.780416285935935 -11.395157160001773 10.494673908317047 0 0 0
886 1 -48.57634721766355 -43.4290803394171 2.6376954952554446 0 0 0
23908 3 -34.536854439106165 -13.659923182886445 6.557758816987111 0 0 0
888 1 -33.61919878943821 -43.44722478988258 0.017259391705536586 0 0 0
919 1 -95.15400290281102 -38.847692926202754 0.002188315055651202 0 0 0
920 1 -93.31535254304384 -38.8675782005189 2.690718413068293 0 0 0
921 1 -91.45595453737224 -41.11778089222183 1.3475062535497457 0 0 0
922 1 -89.58464637751713 -38.830533089595875 -0.004962365897220877 0 0 0
923 1 -80.24110185695653 -38.764325143144234 -2.6045869981744936 0 0 0
924 1 -72.78406448454508 -38.77528508318545 -0.06211878848503716 0 0 0
925 1 -70.90963264652876 -41.08570466521003 -1.3446045854994075 0 0 0
926 1 -67.22916493124136 -41.08051274508473 -3.99264376306371 0 0 0
927 1 -57.8657383568532 -41.145764701456784 1.2936978155274996 0 0 0
928 1 -55.09481708617473 -41.12241264048751 1.4023530040487326 0 0 0
929 1 -41.128656070183155 -38.851767654443194 -2.658478901389053 0 0 0
930 1 -40.126682960882896 -41.129229907469906 -1.309287717755529 0 0 0
931 1 -32.64307403460287 -38.8653760146384 -2.673593537866621 0 0 0
932 1 -31.72913110572899 -38.91907360909417 2.6384197292893425 0 0 0
963 1 -90.51724586569473 -34.26742390539362 2.6874781594674495 0 0 0
964 1 -87.69642763213525 -34.269317451495695 2.7029851275236894 0 0 0
965 1 -75.56621147849586 -34.16859619259068 -0.023256693131866513 0 0 0
966 1 -72.78378645325331 -34.241432031816686 -0.03703031951817337 0 0 0
967 1 -71.85475040111807 -36.47943304935806 1.2983729469557588 0 0 0
968 1 -71.85786751188066 -34.221734665364544 -2.6384281829574583 0 0 0
969 1 -54.10856407542228 -36.533619681781126 -1.2961827686245257 0 0 0
970 1 -54.119878921854124 -34.27064859430507 2.699666582740937 0 0 0
971 1 -53.22752745270834 -34.282713982664916 0.005489773560462652 0 0 0
972 1 -47.55786993586613 -36.55002856821109 -3.952714992974207 0 0 0
973 1 -47.59959964543263 -34.281364420320074 -0.021569919354785583 0 0 0
974 1 -42.019584138411325 -36.53563273591747 -3.904075622892945 0 0 0
975 1 -38.342427204977334 -36.605475850111965 1.3285370283295208 0 0 0
976 1 -32.6749674707255 -36.604328313038906 1.341674944824927 0 0 0
1009 1 -92.40020857225832 -29.734911570028892 0.01698946426119541 0 0 0
1010 1 -88.63859333765413 -29.704113685802543 -2.6273169928610365 0 0 0
1011 1 -83.94402784362681 -31.941809853604887 -3.9859396186634495 0 0 0
1012 1 -83.97390320802776 -29.635836443330017 0.0016609499409003803 0 0 0
1013 1 -76.49167620096249 -31.978840299192676 -1.3384714612445752 0 0 0
1014 1 -74.62455281185116 -29.6358322369568 -2.6775781025233876 0 0 0
1015 1 -60.71430662764105 -31.979930188520242 1.3194248631498553 0 0 0
1016 1 -56.03209590516756 -31.943535566242964 -3.960930120173918 0 0 0
1017 1 -44.8439017130046 -29.66698495304897 0.03821762170743348 0 0 0
1018 1 -41.0822837530054 -29.757299372326994 -2.6383216655929846 0 0 0
1019 1 -38.340330114120945 -31.951008209914768 1.331233473464934 0 0 0
1020 1 -36.48987956377152 -31.942744369440558 -3.972284599409222 0 0 0
1021 1 -33.62316074999964 -29.714494801995553 0.044765544279163905 0 0 0
1045 1 -92.38890650171996 -27.356460602354336 -3.977884699086772 0 0 0
1046 1 -82.08952146339175 -27.337824150880504 -1.3796693976980325 0 0 0
1047 1 -79.34209238309649 -27.365627499977187 -1.260909050424134 0 0 0
1048 1 -78.3711983882716 -25.082800298664896 -0.011319364903574325 0 0 0
1049 1 -77.46903951599472 -25.106870147252586 -2.649731526312893 0 0 0
1050 1 -70.96891569599997 -27.41483471916635 -1.3189033206226526 0 0 0
1051 1 -69.993683133933 -25.101340352675283 -0.005262915480448882 0 0 0
1052 1 -69.06090123569375 -27.373107651926343 1.340062994148001 0 0 0
1053 1 -64.44587898620671 -25.127112712286262 0.04530467211827016 0 0 0
1054 1 -56.94322201686704 -25.131286253213013 2.614422729255603 0 0 0
1055 1 -56.022518474017645 -25.05432162359804 -0.051354339387851056 0 0 0
1056 1 -52.2958523378454 -25.088285968268103 -2.6906471179368268 0 0 0
1057 1 -41.1120082984927 -27.41952735672915 1.3430762987093576 0 0 0
1058 1 -38.376571223782854 -27.444788937917327 1.314996181998314 0 0 0
1095 1 -93.31640747714347 -22.772419346815003 -1.3073083163936872 0 0 0
1096 1 -78.35382971077817 -22.86309103212434 -3.9324200970242753 0 0 0
1097 1 -68.13376726549448 -20.568197046105563 2.6397785731193313 0 0 0
1098 1 -59.76155354386859 -20.52613339880644 2.632662039238056 0 0 0
1099 1 -57.85544458099442 -20.51114982244082 -2.690971354477865 0 0 0
1100 1 -40.16832307146294 -20.61188589347442 2.6992064037154773 0 0 0
1101 1 -39.21100859818232 -22.81883843062054 -3.995789836783513 0 0 0
1102 1 -37.44619337413197 -20.542865172881516 2.6954235686172705 0 0 0
1143 1 -95.1858569920691 -15.936462964974314 -0.015510947085546789 0 0 0
1144 1 -87.68898851322126 -18.266632085782604 -1.3180334295986516 0 0 0
1145 1 -85.80829776544236 -18.277908481766495 1.3805092311749867 0 0 0
1146 1 -73.75905730877457 -18.262572753877254 -1.276837753781333 0 0 0
1147 1 -68.16532679186624 -16.009541125576934 2.6637687573659754 0 0 0
1148 1 -62.49929409413449 -18.188375592893742 -1.2967622639678016 0 0 0
1149 1 -61.564562278731096 -18.291432217987985 -3.917257529903428 0 0 0
1150 1 -49.52754734407522 -15.993787433518225 -2.584447378949541 0 0 0
1151 1 -45.80307902539711 -16.003656004112663 2.6342136125754614 0 0 0
1152 1 -42.02868248195773 -18.19801813588147 -3.956212658331551 0 0 0
1153 1 -38.397912799470234 -15.955602153435013 -2.634502229611659 0 0 0
1154 1 -35.52941321482475 -18.227270472579843 1.323571922355809 0 0 0
1188 1 -94.24602441664526 -13.650825940089035 1.3273977620350976 0 0 0
1189 1 -92.4098982463426 -11.390694894451464 0.013105417821813958 0 0 0
1190 1 -83.08122179467975 -11.395519272243959 -2.6575860270498097 0 0 0
1191 1 -79.3002753274843 -11.437097728624458 2.673934965409309 0 0 0
1192 1 -76.53002288936298 -13.696796165133463 -1.2801037553315826 0 0 0
1193 1 -68.95199345045152 -11.426936737686859 -2.6375711964643287 0 0 0
1194 1 -62.494375787476635 -13.67977004828552 -1.314235204232407 0 0 0
1195 1 -58.816031727876165 -11.373010793158109 -0.02954464088554154 0 0 0
1196 1 -49.57229551004641 -13.766387926292992 1.3392515668512228 0 0 0
1197 1 -47.61623812363923 -11.434680842606454 -0.009841813898233909 0 0 0
1198 1 -40.17849620522273 -11.464323925932284 2.6010690136125163 0 0 0
1199 1 -35.53941875200452 -11.385763993371903 -2.6374915295163444 0 0 0
1200 1 -34.58334351377719 -11.383344033435193 2.5965287716827383 0 0 0
1234 1 -94.28774886237596 -9.13726659430342 1.3692324957383235 0 0 0
1235 1 -90.52386192091096 -6.9136632645626435 2.731144830189095 0 0 0
1236 1 -88.57818423320319 -6.922158465045484 -2.6387493870262766 0 0 0
1237 1 -82.99945891070418 -6.880337656006034 -2.6537186140291507 0 0 0
1238 1 -77.47789518138563 -9.107048756673997 1.299660223538913 0 0 0
1239 1 -75.55287882500986 -6.849710338592253 0.030372352428823746 0 0 0
1240 1 -72.79912739005503 -6.854774263039246 -0.017445130186638735 0 0 0
1241 1 -71.82515157972783 -6.8237881227370565 -2.575438202084502 0 0 0
1242 1 -46.661281864668844 -6.88454055674562 -2.641758868125825 0 0 0
1243 1 -31.74079150428971 -6.825833507285722 2.5903574151733135 0 0 0
1279 1 -94.25121292408883 -2.3636304200087395 -2.6075733502195355 0 0 0
1280 1 -84.84362102718468 -4.618835844686913 -1.2676736592020532 0 0 0
1281 1 -83.02103910130124 -2.378119073298855 -2.665490781755617 0 0 0
1282 1 -77.48581903898334 -4.637146030700883 1.3097216916799628 0 0 0
1283 1 -75.56342354833609 -4.606261888069852 -3.926339619545872 0 0 0
1284 1 -68.03975543802927 -4.6123437916047365 -1.2633204617667797 0 0 0
1285 1 -67.17865913068461 -4.572178937355638 -3.9058547568010633 0 0 0
1286 1 -54.152009729262105 -2.291470278533531 2.619404152785677 0 0 0
1287 1 -53.201150066232564 -4.526719927953657 -3.934400803320923 0 0 0
1288 1 -44.84415597539896 -2.3188788960981412 0.04283788233319008 0 0 0
1289 1 -42.969099240946576 -4.631716962393995 -1.2591259708199836 0 0 0
1290 1 -42.06277282545182 -2.2717947733898427 0.009960252455085694 0 0 0
1291 1 -39.282311560274444 -2.297168762607946 0.03635972305618118 0 0 0
1292 1 -38.30697985883681 -4.596653687948873 1.3401683523830332 0 0 0
1293 1 -38.29698917278825 -2.2773736121863735 -2.700115720516399 0 0 0
1294 1 -37.305889369339795 -2.3376063357194354 2.67822368310644 0 0 0
1295 1 -36.42643188030798 -2.3088860071579944 -0.0009669066055000286 0 0 0
1296 1 -34.51894646428029 -4.620712896773675 -1.3284378573973914 0 0 0
1855 1 -87.76118902076709 -45.6699768204327 6.619646949822254 0 0 0
1856 1 -86.80267890192361 -43.4619041566769 7.86416082779737 0 0 0
1857 1 -83.01957602787988 -43.419584210208285 5.277934397458676 0 0 0
1858 1 -79.29098130473822 -43.3914223296708 10.516184356990891 0 0 0
1859 1 -78.43756683682872 -45.70642838055785 3.967113265565759 0 0 0
1860 1 -71.84658332074055 -43.38938144117321 5.311028612603771 0 0 0
23907 3 -43.85755313095078 -13.696297259986196 9.205246885716704 0 0 0
1862 1 -59.7546013949507 -43.423678822386655 10.482213997368017 0 0 0
1863 1 -54.19914660240408 -45.707054907300396 6.6125181434540075 0 0 0
1864 1 -52.32812120582112 -45.69361664942454 9.246932476656404 0 0 0
23906 3 -47.62885937486222 -11.399173033534971 7.870811260315918 0 0 0
23905 3 -52.30600617099213 -13.689630916305866 9.215837278997146 0 0 0
1867 1 -41.95967995464803 -43.38626028761308 7.895312272956929 0 0 0
1868 1 -40.092302333324746 -43.43663482450812 10.529788293471821 0 0 0
23904 3 -61.62128172449655 -11.412169110933903 7.929938223614599 0 0 0
1870 1 -36.41322144091144 -45.666338166293336 3.963556918370827 0 0 0
1871 1 -35.44147941564573 -43.4188897540607 5.319107796366502 0 0 0
1872 1 -34.545207015679765 -45.6421822271433 6.638153602000742 0 0 0
1904 1 -93.27844424326399 -38.824958038936344 10.513525585698517 0 0 0
1905 1 -88.6868522082879 -41.12123638480311 9.182469295144596 0 0 0
1906 1 -84.90384262594333 -41.11937510528666 6.572555801120746 0 0 0
1907 1 -83.05478573586664 -38.811687796683664 5.2057018941283815 0 0 0
1908 1 -82.06842635359394 -38.767848284674415 10.52135320912679 0 0 0
1909 1 -78.41284864206463 -38.800453409303714 7.909782564966779 0 0 0
1910 1 -75.59419813410253 -41.147183034845305 3.953314303498466 0 0 0
1911 1 -68.14598942389065 -41.12060476049876 6.571579473879421 0 0 0
1912 1 -67.24291870199951 -41.15058444837359 3.9732611584680395 0 0 0
1913 1 -65.38880643516818 -38.83010727925839 10.535552317560935 0 0 0
1914 1 -63.44105676842099 -38.813373170328866 5.327937635004599 0 0 0
1915 1 -62.569869289285606 -38.844828547930184 10.532013737838554 0 0 0
1916 1 -60.64669021859778 -38.836511907313565 5.277637358800334 0 0 0
1917 1 -59.76360435337441 -41.08933396635969 6.5992471025689206 0 0 0
1918 1 -58.829647871553696 -38.82229675467137 7.913947818082839 0 0 0
1919 1 -56.017882556295255 -41.10134065929481 3.9527137638348897 0 0 0
1920 1 -54.19120828622353 -41.15158692510914 6.624405971866771 0 0 0
1921 1 -51.41120394985827 -41.15391236264542 6.5614065754493005 0 0 0
1922 1 -41.070964360883785 -41.09715158451603 9.228905274427607 0 0 0
1923 1 -40.10703156208161 -38.83680021612177 10.522377298799157 0 0 0
1954 1 -95.16799462702754 -36.47758232726267 3.9962642366626095 0 0 0
1955 1 -95.18193773612211 -34.19053832549732 7.8863713718213475 0 0 0
1956 1 -83.93117344850663 -34.22886896279479 7.855476384938765 0 0 0
1957 1 -83.02464955421364 -34.27785797412424 5.277136792706006 0 0 0
1958 1 -73.7198500490937 -34.19931269306298 10.5563569220718 0 0 0
1959 1 -72.75766307877502 -36.50256066664817 3.9567399284105633 0 0 0
1960 1 -63.465018318043164 -36.533536344468025 9.252823324908661 0 0 0
1961 1 -62.56009903500429 -36.499816648599904 6.6558637841014665 0 0 0
1962 1 -57.89414216455949 -36.55363729273909 9.190575067088275 0 0 0
1963 1 -47.63940046529877 -36.502380047737795 3.9134819476008484 0 0 0
1964 1 -47.63863829769363 -34.26668203070674 7.896783056142439 0 0 0
1965 1 -44.803270127791755 -36.56690010459561 3.907648496636364 0 0 0
1966 1 -42.90468117335446 -36.53149508924646 6.587806028506659 0 0 0
1967 1 -40.174663257739674 -34.30080914562878 10.505601304834215 0 0 0
1968 1 -38.29612716337478 -34.26106398476049 5.326344830551257 0 0 0
1994 1 -88.64169852368589 -31.95985487185991 9.206880148170981 0 0 0
1995 1 -88.6295862960512 -29.658278362474746 5.322890740030481 0 0 0
1996 1 -87.70552083860346 -29.73233964543665 10.553859040999065 0 0 0
1997 1 -70.93788259766374 -29.656210544420773 10.549714497999727 0 0 0
1998 1 -67.20252564026782 -31.91250188847841 3.969958737042779 0 0 0
1999 1 -66.29816222689178 -31.94258799764679 9.193444976677764 0 0 0
2000 1 -66.3130498683532 -29.67455357185702 5.342669519085682 0 0 0
2001 1 -60.719768618304045 -29.651828735632243 5.30428477885679 0 0 0
2002 1 -59.789854741890586 -29.630744152306317 10.555242351952078 0 0 0
2003 1 -58.86227526175323 -29.699359158457572 7.936209518564521 0 0 0
2004 1 -57.91514373601975 -32.03082619278047 9.222508642687359 0 0 0
2005 1 -51.383457558754074 -29.693398579499974 10.590494219837435 0 0 0
2006 1 -44.86177813875174 -31.933641501332122 3.9602314090241624 0 0 0
2007 1 -43.88606624987406 -32.00952925502302 9.23863915902005 0 0 0
2008 1 -42.981814127426546 -29.703361456041968 10.572323587171063 0 0 0
2009 1 -41.10830588034086 -32.02092097173839 9.287759446708524 0 0 0
2010 1 -39.24567048855747 -32.009493395727276 3.961459532774347 0 0 0
2039 1 -87.6823035955191 -25.09094334947081 10.529137627214396 0 0 0
2040 1 -63.507628966085676 -27.38268917781064 9.245545151916275 0 0 0
2041 1 -58.834173848381106 -25.13395110076947 7.884783816045971 0 0 0
2042 1 -51.372790613560696 -25.133532199262813 10.538034588322201 0 0 0
2043 1 -42.053703947148264 -25.130819544041074 7.849376239738881 0 0 0
2044 1 -41.130028370694276 -27.38046404909284 9.183281778147919 0 0 0
2045 1 -40.1520671160346 -25.089134667497767 10.517819046164 0 0 0
2046 1 -33.60153388239641 -27.409184636822797 3.9382175995552284 0 0 0
2047 1 -32.70978930825277 -27.428305835429217 9.243134725848634 0 0 0
2074 1 -92.39032395493798 -20.533028047550292 7.964540427022218 0 0 0
2075 1 -90.49806247238021 -20.51762939292371 10.58004505245933 0 0 0
2076 1 -84.9487551635325 -22.832804214366707 6.605017617401298 0 0 0
2077 1 -82.1254127630789 -20.55154234563812 10.544072184755628 0 0 0
2078 1 -72.75579380436139 -20.543249757426302 7.891467359939902 0 0 0
2079 1 -71.84418219980303 -20.553137374833973 5.248581262912726 0 0 0
2080 1 -56.03057116147427 -22.831275784596222 3.880535836289109 0 0 0
2081 1 -54.178096967621684 -20.560151245934073 10.563165684833447 0 0 0
2082 1 -51.34685856624433 -22.875552296732113 6.5696146981624 0 0 0
2083 1 -51.36154230418421 -20.57147262502496 10.565305714771306 0 0 0
2084 1 -50.44731143150996 -20.565344540222874 7.845634350239269 0 0 0
2085 1 -45.71575340212478 -22.850453604273568 6.5624485620137385 0 0 0
2086 1 -44.76326557943717 -22.885902369937895 3.9997499230279487 0 0 0
2120 1 -84.9454180419494 -18.244822671982973 6.62451451972802 0 0 0
2121 1 -80.2838868813678 -15.974523438940547 5.258636894224171 0 0 0
2122 1 -79.33876138822428 -16.02248293451944 10.555683067115083 0 0 0
2123 1 -75.63060868618258 -18.301765070601572 3.9905084247084144 0 0 0
2124 1 -75.5698059693331 -15.98062896995524 7.898176403620667 0 0 0
2125 1 -73.71695576572392 -18.283555487325245 6.6236637107046725 0 0 0
2126 1 -68.14744212663902 -15.93137492314375 10.57374911805747 0 0 0
2127 1 -64.41278226348633 -15.946982987620203 7.926475890355739 0 0 0
2128 1 -58.81994345138471 -15.958682725844245 7.86136242973928 0 0 0
2129 1 -52.29574217783961 -18.25423558608919 9.193390549766896 0 0 0
2130 1 -46.66983162411143 -18.25626674567219 9.21814163834944 0 0 0
2131 1 -45.72769485122174 -15.963522237098914 10.480701129680682 0 0 0
2132 1 -37.35866552553829 -15.990475662420938 10.535854612639028 0 0 0
2133 1 -31.764804029217494 -15.961106459520959 10.544520862923228 0 0 0
2165 1 -94.22403485958846 -13.700415918162264 9.20899947479409 0 0 0
2166 1 -85.88540499099246 -13.730939666408439 9.236169239380924 0 0 0
2167 1 -85.86406080366544 -11.415905715820259 5.287358282965247 0 0 0
2168 1 -83.07083057176108 -11.424037139071046 5.305863372462689 0 0 0
2169 1 -81.18400950744488 -13.732880417846431 3.962622951397419 0 0 0
2170 1 -77.4539644982262 -13.72864070815049 9.255791636768137 0 0 0
2171 1 -74.67731443776776 -13.759049607215424 9.238810300585119 0 0 0
2172 1 -74.68244351705695 -11.466724214380115 5.22889354880553 0 0 0
2173 1 -72.73048501149476 -11.479779835635654 7.9193383226988345 0 0 0
2174 1 -69.05705583571655 -13.693550381307922 9.189475283953321 0 0 0
2175 1 -69.06409868752128 -11.446344447669418 5.3158649612999085 0 0 0
2176 1 -59.76731517923918 -13.716928571134922 6.608022377003238 0 0 0
2177 1 -49.453351350004006 -13.69666923520738 9.187804333328145 0 0 0
2178 1 -48.55128097892486 -11.422769400803055 10.553664626294125 0 0 0
2179 1 -47.61680880317625 -13.706157989345321 3.966438184735937 0 0 0
2180 1 -46.68578867214025 -11.412712117123561 5.231886693831282 0 0 0
2181 1 -35.4978616471196 -11.365957235237417 5.22409574973771 0 0 0
2209 1 -82.18185488980234 -6.875680057816005 10.566860463349137 0 0 0
2210 1 -81.19119044311888 -9.121399571321845 3.914148002663614 0 0 0
2211 1 -76.50245259985572 -9.110357615106203 6.570874579043114 0 0 0
2212 1 -74.6211147800369 -9.159809822484995 9.264677743447137 0 0 0
2213 1 -72.79383858242741 -9.134929209786506 3.9559661900836467 0 0 0
2214 1 -60.66846185870929 -6.8738595758870105 5.284615122427386 0 0 0
2215 1 -54.17751880665478 -9.119084147328927 6.5944703485890095 0 0 0
2216 1 -51.3518131754829 -6.870916015310996 10.55077280844479 0 0 0
2217 1 -36.4163533483146 -9.082515440799021 3.9354938466102425 0 0 0
2246 1 -89.56223668964783 -4.6731788204437805 4.034938167913062 0 0 0
2247 1 -74.63079720837035 -4.551018679667543 9.239920646984753 0 0 0
2248 1 -62.577404630392174 -4.593156089957908 6.583385349994092 0 0 0