LAMMPS (5 Jun 2019)
# in.uniaxialstrain
# Verify MDStressLab work properly
# Min Shi
# Version 1.0

clear

variable lattice_constant equal 5.43094977840521 #Lattice parameter
variable unit_cells_x     equal 10
variable unit_cells_y     equal 10 #Must be even
variable unit_cells_z     equal 10

units           metal
boundary        p p p
atom_style      atomic
atom_modify	map array
atom_modify     sort 0 0 # Must have in every simulation to prevent atom id changing

#create lattice
lattice         custom 1.0 a1              5.43094977840521 0 0 a2              0 5.43094977840521 0 a3              0 0 5.43094977840521 basis           0 0 0 basis           0 0.5 0.5 basis           0.5 0 0.5 basis           0.5 0.5 0 basis           0.25 0.25 0.25 basis           0.25 0.75 0.75 basis           0.75 0.25 0.75 basis           0.75 0.75 0.25
Lattice spacing in x,y,z = 5.43095 5.43095 5.43095

region          box block 0 ${unit_cells_x} 0 ${unit_cells_y} 0 ${unit_cells_z} units lattice
region          box block 0 10 0 ${unit_cells_y} 0 ${unit_cells_z} units lattice
region          box block 0 10 0 10 0 ${unit_cells_z} units lattice
region          box block 0 10 0 10 0 10 units lattice
create_box      1 box
Created orthogonal box = (0 0 0) to (54.3095 54.3095 54.3095)
  1 by 1 by 1 MPI processor grid
create_atoms    1 box
Created 8000 atoms
  create_atoms CPU = 0.00374191 secs

pair_style kim SW_StillingerWeber_1985_Si__MO_405512056662_005
pair_coeff * * Si
mass 1 28.0855

compute spatom all stress/atom NULL
variable p1 atom "c_spatom[1]/10000/160.21766208"
variable p2 atom "c_spatom[2]/10000/160.21766208"
variable p3 atom "c_spatom[3]/10000/160.21766208"
variable p4 atom "c_spatom[4]/10000/160.21766208"
variable p5 atom "c_spatom[5]/10000/160.21766208"
variable p6 atom "c_spatom[6]/10000/160.21766208"
variable p7 equal "-pxx/10000/160.21766208"
variable p8 equal "-pyy/10000/160.21766208"
variable p9 equal "-pzz/10000/160.21766208"

compute        p all reduce sum c_spatom[1] c_spatom[2] c_spatom[3]
variable       press equal -(c_p[1]+c_p[2]+c_p[3])/(3*vol)
variable       press1 equal (c_p[1])/(vol)/10000/160.21766208
variable       press2 equal (c_p[2])/(vol)/10000/160.21766208
variable       press3 equal (c_p[3])/(vol)/10000/160.21766208
thermo_style   custom step temp etotal press v_press v_press1 v_press2 v_press3

reset_timestep 0
fix def1 all print 1 "${p7} ${p8} ${p9}" file Si.def1_init.txt

dump          1 all custom 1 dump.initial.* id type x y z v_p1 v_p2 v_p3 v_p4 v_p5 v_p6
dump_modify   1 element Si format line "%d %d %25.16f %25.16f %25.16f %25.16f %25.16f %25.16f %25.16f %25.16f %25.16fs"

run		      0	#to update thermo data
Neighbor list info ...
  update every 1 steps, delay 10 steps, check yes
  max neighbors/atom: 2000, page size: 100000
  master list distance cutoff = 5.77118
  ghost atom cutoff = 5.77118
  binsize = 2.88559, bins = 19 19 19
  1 neighbor lists, perpetual/occasional/extra = 1 0 0
  (1) pair kim, perpetual
      attributes: full, newton off, cut 5.77118
      pair build: full/bin/atomonly
      stencil: full/bin/3d
      bin: standard
Per MPI rank memory allocation (min/avg/max) = 8.696 | 8.696 | 8.696 Mbytes
Step Temp TotEng Press v_press v_press1 v_press2 v_press3 
       0            0     -34691.2 2.0971057e-09 2.0971057e-09 -1.3087038e-15 -1.3087038e-15 -1.3093238e-15 
Loop time of 9.56003e-07 on 1 procs for 0 steps with 8000 atoms

313.8% CPU use with 1 MPI tasks x no OpenMP threads

MPI task timing breakdown:
Section |  min time  |  avg time  |  max time  |%varavg| %total
---------------------------------------------------------------
Pair    | 0          | 0          | 0          |   0.0 |  0.00
Neigh   | 0          | 0          | 0          |   0.0 |  0.00
Comm    | 0          | 0          | 0          |   0.0 |  0.00
Output  | 0          | 0          | 0          |   0.0 |  0.00
Modify  | 0          | 0          | 0          |   0.0 |  0.00
Other   |            | 9.56e-07   |            |       |100.00

Nlocal:    8000 ave 8000 max 8000 min
Histogram: 1 0 0 0 0 0 0 0 0 0
Nghost:    6725 ave 6725 max 6725 min
Histogram: 1 0 0 0 0 0 0 0 0 0
Neighs:    0 ave 0 max 0 min
Histogram: 1 0 0 0 0 0 0 0 0 0
FullNghs:  272000 ave 272000 max 272000 min
Histogram: 1 0 0 0 0 0 0 0 0 0

Total # of neighbors = 272000
Ave neighs/atom = 34
Neighbor list builds = 0
Dangerous builds = 0

undump 1


run 1
Per MPI rank memory allocation (min/avg/max) = 5.025 | 5.025 | 5.025 Mbytes
Step Temp TotEng Press v_press v_press1 v_press2 v_press3 
       0            0     -34691.2 2.0971057e-09 2.0971057e-09 -1.3087038e-15 -1.3087038e-15 -1.3093238e-15 
-1.3087037957931e-15 -1.30870379579309e-15 -1.30932378482815e-15
       1            0     -34691.2 2.0971057e-09 2.0971057e-09 -1.3087038e-15 -1.3087038e-15 -1.3093238e-15 
Loop time of 0.0313905 on 1 procs for 1 steps with 8000 atoms

Performance: 2.752 ns/day, 8.720 hours/ns, 31.857 timesteps/s
89.1% CPU use with 1 MPI tasks x no OpenMP threads

MPI task timing breakdown:
Section |  min time  |  avg time  |  max time  |%varavg| %total
---------------------------------------------------------------
Pair    | 0.03072    | 0.03072    | 0.03072    |   0.0 | 97.86
Neigh   | 0          | 0          | 0          |   0.0 |  0.00
Comm    | 6.994e-05  | 6.994e-05  | 6.994e-05  |   0.0 |  0.22
Output  | 0.00040367 | 0.00040367 | 0.00040367 |   0.0 |  1.29
Modify  | 0.00017939 | 0.00017939 | 0.00017939 |   0.0 |  0.57
Other   |            | 1.78e-05   |            |       |  0.06

Nlocal:    8000 ave 8000 max 8000 min
Histogram: 1 0 0 0 0 0 0 0 0 0
Nghost:    6725 ave 6725 max 6725 min
Histogram: 1 0 0 0 0 0 0 0 0 0
Neighs:    0 ave 0 max 0 min
Histogram: 1 0 0 0 0 0 0 0 0 0
FullNghs:  272000 ave 272000 max 272000 min
Histogram: 1 0 0 0 0 0 0 0 0 0

Total # of neighbors = 272000
Ave neighs/atom = 34
Neighbor list builds = 0
Dangerous builds = 0
unfix def1

clear

variable lattice_constant equal 5.43094977840521 #Lattice parameter
variable unit_cells_x     equal 10
variable unit_cells_y     equal 10 #Must be even
variable unit_cells_z     equal 10

units           metal
boundary        p p p
atom_style      atomic
atom_modify	map array
atom_modify     sort 0 0 # Must have in every simulation to prevent atom id changing

#create lattice
lattice         custom 1.0 a1              5.43094977840521 0 0 a2              0 5.4852592761892621 0 a3              0 0 5.43094977840521 basis           0 0 0 basis           0 0.5 0.5 basis           0.5 0 0.5 basis           0.5 0.5 0 basis           0.25 0.25 0.25 basis           0.25 0.75 0.75 basis           0.75 0.25 0.75 basis           0.75 0.75 0.25
Lattice spacing in x,y,z = 5.43095 5.48526 5.43095

region          box block 0 ${unit_cells_x} 0 ${unit_cells_y} 0 ${unit_cells_z} units lattice
region          box block 0 10 0 ${unit_cells_y} 0 ${unit_cells_z} units lattice
region          box block 0 10 0 10 0 ${unit_cells_z} units lattice
region          box block 0 10 0 10 0 10 units lattice
create_box      1 box
Created orthogonal box = (0 0 0) to (54.3095 54.8526 54.3095)
  1 by 1 by 1 MPI processor grid
create_atoms    1 box
Created 8000 atoms
  create_atoms CPU = 0.000770347 secs

pair_style kim SW_StillingerWeber_1985_Si__MO_405512056662_005
pair_coeff * * Si
mass 1 28.0855

compute spatom all stress/atom NULL
variable p1 atom "c_spatom[1]/10000/160.21766208"
variable p2 atom "c_spatom[2]/10000/160.21766208"
variable p3 atom "c_spatom[3]/10000/160.21766208"
variable p4 atom "c_spatom[4]/10000/160.21766208"
variable p5 atom "c_spatom[5]/10000/160.21766208"
variable p6 atom "c_spatom[6]/10000/160.21766208"
variable p7 equal "-pxx/10000/160.21766208"
variable p8 equal "-pyy/10000/160.21766208"
variable p9 equal "-pzz/10000/160.21766208"

compute        p all reduce sum c_spatom[1] c_spatom[2] c_spatom[3]
variable       press equal -(c_p[1]+c_p[2]+c_p[3])/(3*vol)
variable       press1 equal (c_p[1])/(vol)/10000/160.21766208
variable       press2 equal (c_p[2])/(vol)/10000/160.21766208
variable       press3 equal (c_p[3])/(vol)/10000/160.21766208
thermo_style   custom step temp etotal press v_press v_press1 v_press2 v_press3

reset_timestep 1
fix def2 all print 1 "${p7} ${p8} ${p9}" file Si.def1_final.txt
dump           2 all custom 1 dump.final.* id type x y z v_p1 v_p2 v_p3 v_p4 v_p5 v_p6
dump_modify    2 element Si format line "%d %d %25.16f %25.16f %25.16f %25.16f %25.16f %25.16f %25.16f %25.16f %25.16f"

run 0
Neighbor list info ...
  update every 1 steps, delay 10 steps, check yes
  max neighbors/atom: 2000, page size: 100000
  master list distance cutoff = 5.77118
  ghost atom cutoff = 5.77118
  binsize = 2.88559, bins = 19 20 19
  1 neighbor lists, perpetual/occasional/extra = 1 0 0
  (1) pair kim, perpetual
      attributes: full, newton off, cut 5.77118
      pair build: full/bin/atomonly
      stencil: full/bin/3d
      bin: standard
Per MPI rank memory allocation (min/avg/max) = 8.699 | 8.699 | 8.699 Mbytes
Step Temp TotEng Press v_press v_press1 v_press2 v_press3 
       1            0   -34683.687   -9963.4684   -9963.4684 0.0046552322 0.0093456594 0.0046552322 
Loop time of 1.568e-06 on 1 procs for 0 steps with 8000 atoms

446.4% CPU use with 1 MPI tasks x no OpenMP threads

MPI task timing breakdown:
Section |  min time  |  avg time  |  max time  |%varavg| %total
---------------------------------------------------------------
Pair    | 0          | 0          | 0          |   0.0 |  0.00
Neigh   | 0          | 0          | 0          |   0.0 |  0.00
Comm    | 0          | 0          | 0          |   0.0 |  0.00
Output  | 0          | 0          | 0          |   0.0 |  0.00
Modify  | 0          | 0          | 0          |   0.0 |  0.00
Other   |            | 1.568e-06  |            |       |100.00

Nlocal:    8000 ave 8000 max 8000 min
Histogram: 1 0 0 0 0 0 0 0 0 0
Nghost:    6725 ave 6725 max 6725 min
Histogram: 1 0 0 0 0 0 0 0 0 0
Neighs:    0 ave 0 max 0 min
Histogram: 1 0 0 0 0 0 0 0 0 0
FullNghs:  272000 ave 272000 max 272000 min
Histogram: 1 0 0 0 0 0 0 0 0 0

Total # of neighbors = 272000
Ave neighs/atom = 34
Neighbor list builds = 0
Dangerous builds = 0
undump 2

run 1
Per MPI rank memory allocation (min/avg/max) = 5.027 | 5.027 | 5.027 Mbytes
Step Temp TotEng Press v_press v_press1 v_press2 v_press3 
       1            0   -34683.687   -9963.4684   -9963.4684 0.0046552322 0.0093456594 0.0046552322 
0.00465523216746422 0.00934565937831645 0.00465523216746426
       2            0   -34683.687   -9963.4684   -9963.4684 0.0046552322 0.0093456594 0.0046552322 
Loop time of 0.0376656 on 1 procs for 1 steps with 8000 atoms

Performance: 2.294 ns/day, 10.463 hours/ns, 26.549 timesteps/s
99.9% CPU use with 1 MPI tasks x no OpenMP threads

MPI task timing breakdown:
Section |  min time  |  avg time  |  max time  |%varavg| %total
---------------------------------------------------------------
Pair    | 0.036789   | 0.036789   | 0.036789   |   0.0 | 97.67
Neigh   | 0          | 0          | 0          |   0.0 |  0.00
Comm    | 9.618e-05  | 9.618e-05  | 9.618e-05  |   0.0 |  0.26
Output  | 0.00054213 | 0.00054213 | 0.00054213 |   0.0 |  1.44
Modify  | 0.00020809 | 0.00020809 | 0.00020809 |   0.0 |  0.55
Other   |            | 3.064e-05  |            |       |  0.08

Nlocal:    8000 ave 8000 max 8000 min
Histogram: 1 0 0 0 0 0 0 0 0 0
Nghost:    6725 ave 6725 max 6725 min
Histogram: 1 0 0 0 0 0 0 0 0 0
Neighs:    0 ave 0 max 0 min
Histogram: 1 0 0 0 0 0 0 0 0 0
FullNghs:  272000 ave 272000 max 272000 min
Histogram: 1 0 0 0 0 0 0 0 0 0

Total # of neighbors = 272000
Ave neighs/atom = 34
Neighbor list builds = 0
Dangerous builds = 0
unfix def2
Total wall time: 0:00:00
