# Bcc oriented X=[-111] Y=[101] Z=[12-1].

24480 atoms
3 atom types

-95.187276549540 95.187276549540 xlo xhi
-45.717697559130 45.717697559130 ylo yhi
-11.877806246622 11.877806246622 zlo zhi
0 0 0 xy xz yz

Masses

1 92.908 #Nb
2 180.95 #Ta
3 50.941 #V

Atoms # atomic

1 1 -91.454442175097 -43.431812681174 -10.558049996987
2 1 -82.122356238893 -45.717697559130 -9.238293747375
3 1 -82.122356238893 -43.431812681174 -5.279024998493
4 1 -78.389521864260 -43.431812681174 -7.918537497740
5 1 -74.656687489817 -45.717697559130 -6.598781248129
6 1 -70.923853115373 -45.717697559130 -9.238293747375
7 1 -69.990644521810 -45.717697559130 -11.877806246622
8 1 -69.990644521810 -43.431812681174 -7.918537497740
9 1 -68.124227334493 -43.431812681174 -5.279024998493
10 1 -67.191018740930 -43.431812681174 -7.918537497740
11 1 -66.257810147177 -45.717697559130 -6.598781248129
12 1 -55.992515617410 -43.431812681174 -7.918537497740
13 1 -52.259681242967 -43.431812681174 -10.558049996987
14 1 -43.860803900327 -45.717697559130 -6.598781248129
15 1 -43.860803900327 -43.431812681174 -10.558049996987
16 1 -42.927595306573 -45.717697559130 -9.238293747375
17 1 -42.927595306573 -43.431812681174 -5.279024998493
18 1 -41.994386713010 -43.431812681174 -7.918537497740
19 1 -40.127969525693 -43.431812681174 -5.279024998493
20 1 -39.194760932130 -45.717697559130 -11.877806246622
21 1 -37.328343745004 -45.717697559130 -9.238293747375
22 1 -36.395135151250 -45.717697559130 -11.877806246622
23 1 -35.461926557687 -45.717697559130 -6.598781248129
24 1 -35.461926557687 -43.431812681174 -10.558049996987
25 1 -30.795883589490 -45.717697559130 -11.877806246622
26 1 -29.862674995927 -43.431812681174 -10.558049996987
27 1 -28.929466402363 -43.431812681174 -5.279024998493
28 1 -27.063049215047 -45.717697559130 -6.598781248129
29 1 -19.597380466160 -45.717697559130 -11.877806246622
30 1 -17.730963278843 -43.431812681174 -5.279024998493
31 1 -9.332085936203 -43.431812681174 -5.279024998493
32 1 -8.398877342640 -45.717697559130 -11.877806246622
33 1 -2.799625780880 -45.717697559130 -11.877806246622
34 1 1.866417187317 -43.431812681174 -5.279024998493
35 1 9.332085936203 -45.717697559130 -6.598781248129
36 1 19.597380466160 -45.717697559130 -11.877806246622
37 1 24.263423434167 -45.717697559130 -9.238293747375
38 1 26.129840621483 -45.717697559130 -6.598781248129
39 1 31.729092183243 -43.431812681174 -10.558049996987
40 1 33.595509370370 -45.717697559130 -11.877806246622
41 1 35.461926557687 -45.717697559130 -9.238293747375
42 1 35.461926557687 -43.431812681174 -5.279024998493
43 1 41.994386713010 -43.431812681174 -7.918537497740
44 1 44.794012493890 -45.717697559130 -11.877806246622
45 1 51.326472649213 -43.431812681174 -10.558049996987
46 1 58.792141398290 -45.717697559130 -11.877806246622
47 1 59.725349991853 -43.431812681174 -10.558049996987
48 1 65.324601553613 -43.431812681174 -10.558049996987
49 1 67.191018740930 -45.717697559130 -11.877806246622
50 1 68.124227334493 -45.717697559130 -6.598781248129
51 1 84.921982019774 -45.717697559130 -6.598781248129
52 1 85.855190613337 -45.717697559130 -9.238293747375
53 1 86.788399206900 -43.431812681174 -7.918537497740
54 1 90.521233581343 -43.431812681174 -10.558049996987
55 1 92.387650768660 -43.431812681174 -7.918537497740
56 1 -95.187276549540 -38.860042925261 -7.918537497740
57 1 -86.788399206900 -41.145927803217 -11.877806246622
58 1 -81.189147645140 -41.145927803217 -11.877806246622
59 1 -66.257810147177 -38.860042925261 -10.558049996987
60 1 -58.792141398290 -41.145927803217 -11.877806246622
61 1 -53.192889836530 -41.145927803217 -11.877806246622
62 1 -51.326472649213 -41.145927803217 -9.238293747375
63 1 -44.794012493890 -41.145927803217 -11.877806246622
64 1 -43.860803900327 -41.145927803217 -6.598781248129
65 1 -43.860803900327 -38.860042925261 -10.558049996987
66 1 -41.994386713010 -41.145927803217 -11.877806246622
67 1 -38.261552338567 -38.860042925261 -10.558049996987
68 1 -35.461926557687 -41.145927803217 -6.598781248129
69 1 -30.795883589490 -41.145927803217 -11.877806246622
70 1 -29.862674995927 -41.145927803217 -6.598781248129
71 1 -21.463797653287 -38.860042925261 -10.558049996987
72 1 -17.730963278843 -41.145927803217 -9.238293747375
73 1 -17.730963278843 -38.860042925261 -5.279024998493
74 1 -13.998128904400 -41.145927803217 -11.877806246622
75 1 -13.064920310647 -38.860042925261 -10.558049996987
76 1 -10.265294529766 -41.145927803217 -6.598781248129
77 1 -9.332085936203 -41.145927803217 -9.238293747375
78 1 -7.465668749077 -41.145927803217 -6.598781248129
79 1 -6.532460155323 -38.860042925261 -5.279024998493
80 1 2.799625780880 -41.145927803217 -11.877806246622
81 1 4.666042968197 -38.860042925261 -5.279024998493
82 1 7.465668749077 -38.860042925261 -5.279024998493
83 1 17.730963278843 -38.860042925261 -10.558049996987
84 1 27.063049215047 -41.145927803217 -9.238293747375
85 1 41.994386713010 -41.145927803217 -11.877806246622
86 1 50.393264055650 -41.145927803217 -11.877806246622
87 1 51.326472649213 -38.860042925261 -10.558049996987
88 1 55.992515617410 -41.145927803217 -11.877806246622
89 1 59.725349991853 -38.860042925261 -10.558049996987
90 1 66.257810147177 -41.145927803217 -9.238293747375
91 1 67.191018740930 -41.145927803217 -11.877806246622
92 1 68.124227334493 -41.145927803217 -6.598781248129
93 1 69.990644521810 -38.860042925261 -7.918537497740
94 1 75.589896083380 -38.860042925261 -7.918537497740
95 1 77.456313270697 -38.860042925261 -5.279024998493
96 1 85.855190613337 -38.860042925261 -5.279024998493
97 1 86.788399206900 -41.145927803217 -11.877806246622
98 1 91.454442175097 -41.145927803217 -9.238293747375
99 1 92.387650768660 -41.145927803217 -11.877806246622
100 1 93.320859362223 -38.860042925261 -10.558049996987
101 1 -93.320859362223 -36.574158047304 -9.238293747375
102 1 -92.387650768660 -36.574158047304 -11.877806246622
103 1 -82.122356238893 -36.574158047304 -9.238293747375
104 1 -75.589896083380 -36.574158047304 -11.877806246622
105 1 -75.589896083380 -34.288273169348 -7.918537497740
106 1 -67.191018740930 -36.574158047304 -11.877806246622
107 1 -62.524975772733 -36.574158047304 -9.238293747375
108 1 -61.591767179170 -34.288273169348 -7.918537497740
109 1 -59.725349991853 -34.288273169348 -5.279024998493
110 1 -57.858932804537 -34.288273169348 -10.558049996987
111 1 -50.393264055650 -36.574158047304 -11.877806246622
112 1 -48.526846868333 -34.288273169348 -5.279024998493
113 1 -45.727221087453 -36.574158047304 -9.238293747375
114 1 -42.927595306573 -34.288273169348 -5.279024998493
115 1 -38.261552338567 -36.574158047304 -6.598781248129
116 1 -35.461926557687 -36.574158047304 -6.598781248129
117 1 -21.463797653287 -34.288273169348 -10.558049996987
118 1 -15.864546091527 -34.288273169348 -10.558049996987
119 1 -14.931337497963 -36.574158047304 -9.238293747375
120 1 -11.198503123520 -36.574158047304 -11.877806246622
121 1 -11.198503123520 -34.288273169348 -7.918537497740
122 1 -10.265294529766 -34.288273169348 -10.558049996987
123 1 -9.332085936203 -36.574158047304 -9.238293747375
124 1 -2.799625780880 -36.574158047304 -11.877806246622
125 1 8.398877342640 -34.288273169348 -7.918537497740
126 1 14.931337497963 -34.288273169348 -10.558049996987
127 1 22.397006247040 -34.288273169348 -7.918537497740
128 1 29.862674995927 -36.574158047304 -9.238293747375
129 1 30.795883589490 -34.288273169348 -7.918537497740
130 1 31.729092183243 -34.288273169348 -10.558049996987
131 1 36.395135151250 -34.288273169348 -7.918537497740
132 1 41.994386713010 -36.574158047304 -11.877806246622
133 1 42.927595306573 -34.288273169348 -10.558049996987
134 1 48.526846868333 -34.288273169348 -10.558049996987
135 1 49.460055462087 -36.574158047304 -9.238293747375
136 1 50.393264055650 -34.288273169348 -7.918537497740
137 1 63.458184366297 -34.288273169348 -5.279024998493
138 1 68.124227334493 -34.288273169348 -10.558049996987
139 1 71.857061708937 -36.574158047304 -9.238293747375
140 1 72.790270302500 -34.288273169348 -7.918537497740
141 1 76.523104677133 -36.574158047304 -6.598781248129
142 1 80.255939051577 -34.288273169348 -5.279024998493
143 1 81.189147645140 -36.574158047304 -11.877806246622
144 1 -95.187276549540 -32.002388291391 -11.877806246622
145 1 -92.387650768660 -32.002388291391 -11.877806246622
146 1 -85.855190613337 -32.002388291391 -6.598781248129
147 1 -84.921982019774 -29.716503413435 -5.279024998493
148 1 -83.055564832457 -32.002388291391 -6.598781248129
149 1 -83.055564832457 -29.716503413435 -10.558049996987
150 1 -74.656687489817 -32.002388291391 -6.598781248129
151 1 -69.057435928057 -32.002388291391 -6.598781248129
152 1 -69.057435928057 -29.716503413435 -10.558049996987
153 1 -62.524975772733 -32.002388291391 -9.238293747375
154 1 -55.992515617410 -29.716503413435 -7.918537497740
155 1 -54.126098430093 -32.002388291391 -9.238293747375
156 1 -50.393264055650 -32.002388291391 -11.877806246622
157 1 -49.460055462087 -29.716503413435 -10.558049996987
158 1 -46.660429681207 -32.002388291391 -6.598781248129
159 1 -42.927595306573 -32.002388291391 -9.238293747375
160 1 -36.395135151250 -32.002388291391 -11.877806246622
161 1 -32.662300776807 -32.002388291391 -6.598781248129
162 1 -27.063049215047 -32.002388291391 -6.598781248129
163 1 -13.998128904400 -32.002388291391 -11.877806246622
164 1 -9.332085936203 -29.716503413435 -5.279024998493
165 1 0.933208593563 -29.716503413435 -10.558049996987
166 1 5.599251561760 -29.716503413435 -7.918537497740
167 1 6.532460155323 -29.716503413435 -10.558049996987
168 1 16.797754685280 -32.002388291391 -11.877806246622
169 1 17.730963278843 -29.716503413435 -10.558049996987
170 1 20.530589059723 -32.002388291391 -6.598781248129
171 1 30.795883589490 -29.716503413435 -7.918537497740
172 1 34.528717964123 -32.002388291391 -6.598781248129
173 1 40.127969525693 -32.002388291391 -6.598781248129
174 1 47.593638274770 -32.002388291391 -11.877806246622
175 1 55.059307023847 -32.002388291391 -9.238293747375
176 1 56.925724210973 -29.716503413435 -10.558049996987
177 1 59.725349991853 -29.716503413435 -10.558049996987
178 1 69.990644521810 -29.716503413435 -7.918537497740
179 1 73.723478896253 -29.716503413435 -10.558049996987
180 1 77.456313270697 -29.716503413435 -5.279024998493
181 1 80.255939051577 -32.002388291391 -9.238293747375
182 1 83.055564832457 -32.002388291391 -9.238293747375
183 1 -92.387650768660 -27.430618535478 -11.877806246622
184 1 -92.387650768660 -25.144733657522 -7.918537497740
185 1 -90.521233581343 -25.144733657522 -5.279024998493
186 1 -89.588024987780 -25.144733657522 -7.918537497740
187 1 -88.654816394217 -27.430618535478 -6.598781248129
188 1 -88.654816394217 -25.144733657522 -10.558049996987
189 1 -86.788399206900 -25.144733657522 -7.918537497740
190 1 -75.589896083380 -27.430618535478 -11.877806246622
191 1 -71.857061708937 -27.430618535478 -6.598781248129
192 1 -69.990644521810 -27.430618535478 -11.877806246622
193 1 -69.990644521810 -25.144733657522 -7.918537497740
194 1 -65.324601553613 -27.430618535478 -9.238293747375
195 1 -65.324601553613 -25.144733657522 -5.279024998493
196 1 -54.126098430093 -27.430618535478 -9.238293747375
197 1 -48.526846868333 -27.430618535478 -9.238293747375
198 1 -27.063049215047 -27.430618535478 -6.598781248129
199 1 -26.129840621483 -25.144733657522 -5.279024998493
200 1 -24.263423434167 -27.430618535478 -6.598781248129
201 1 -20.530589059723 -27.430618535478 -9.238293747375
202 1 -17.730963278843 -25.144733657522 -5.279024998493
203 1 -16.797754685280 -27.430618535478 -11.877806246622
204 1 -15.864546091527 -27.430618535478 -6.598781248129
205 1 -14.931337497963 -27.430618535478 -9.238293747375
206 1 -2.799625780880 -27.430618535478 -11.877806246622
207 1 -2.799625780880 -25.144733657522 -7.918537497740
208 1 3.732834374443 -27.430618535478 -6.598781248129
209 1 4.666042968197 -27.430618535478 -9.238293747375
210 1 10.265294529767 -25.144733657522 -5.279024998493
211 1 11.198503123520 -27.430618535478 -11.877806246622
212 1 12.131711717083 -27.430618535478 -6.598781248129
213 1 14.931337497963 -25.144733657522 -10.558049996987
214 1 27.063049215047 -27.430618535478 -9.238293747375
215 1 29.862674995927 -25.144733657522 -5.279024998493
216 1 36.395135151250 -27.430618535478 -11.877806246622
217 1 44.794012493890 -27.430618535478 -11.877806246622
218 1 47.593638274770 -27.430618535478 -11.877806246622
219 1 57.858932804536 -25.144733657522 -5.279024998493
220 1 58.792141398290 -27.430618535478 -11.877806246622
221 1 69.057435928057 -25.144733657522 -5.279024998493
222 1 88.654816394217 -27.430618535478 -9.238293747375
223 1 -87.721607800463 -22.858848779565 -9.238293747375
224 1 -87.721607800463 -20.572963901609 -5.279024998493
225 1 -75.589896083380 -20.572963901609 -7.918537497740
226 1 -74.656687489817 -22.858848779565 -6.598781248129
227 1 -71.857061708937 -22.858848779565 -6.598781248129
228 1 -70.923853115373 -20.572963901609 -5.279024998493
229 1 -65.324601553613 -20.572963901609 -5.279024998493
230 1 -63.458184366297 -20.572963901609 -10.558049996987
231 1 -61.591767179170 -20.572963901609 -7.918537497740
232 1 -56.925724210973 -22.858848779565 -9.238293747375
233 1 -56.925724210973 -20.572963901609 -5.279024998493
234 1 -50.393264055650 -22.858848779565 -11.877806246622
235 1 -34.528717964123 -22.858848779565 -9.238293747375
236 1 -33.595509370370 -20.572963901609 -7.918537497740
237 1 -25.196632027730 -20.572963901609 -7.918537497740
238 1 -22.397006247040 -20.572963901609 -7.918537497740
239 1 -20.530589059723 -20.572963901609 -5.279024998493
240 1 -6.532460155323 -22.858848779565 -9.238293747375
241 1 -3.732834374443 -20.572963901609 -5.279024998493
242 1 -0.933208593563 -20.572963901609 -5.279024998493
243 1 5.599251561760 -20.572963901609 -7.918537497740
244 1 6.532460155323 -20.572963901609 -10.558049996987
245 1 8.398877342640 -20.572963901609 -7.918537497740
246 1 11.198503123520 -22.858848779565 -11.877806246622
247 1 14.931337497963 -20.572963901609 -10.558049996987
248 1 18.664171872407 -22.858848779565 -9.238293747375
249 1 44.794012493890 -20.572963901609 -7.918537497740
250 1 45.727221087453 -20.572963901609 -10.558049996987
251 1 51.326472649213 -22.858848779565 -6.598781248129
252 1 55.992515617410 -20.572963901609 -7.918537497740
253 1 58.792141398290 -22.858848779565 -11.877806246622
254 1 59.725349991853 -22.858848779565 -6.598781248129
255 1 63.458184366297 -20.572963901609 -5.279024998493
256 1 66.257810147177 -22.858848779565 -9.238293747375
257 1 66.257810147177 -20.572963901609 -5.279024998493
258 1 67.191018740930 -20.572963901609 -7.918537497740
259 1 68.124227334493 -22.858848779565 -6.598781248129
260 1 69.990644521810 -20.572963901609 -7.918537497740
261 1 70.923853115373 -20.572963901609 -10.558049996987
262 1 74.656687489817 -20.572963901609 -5.279024998493
263 1 77.456313270697 -22.858848779565 -9.238293747375
264 1 83.988773426020 -20.572963901609 -7.918537497740
265 1 87.721607800463 -20.572963901609 -10.558049996987
266 1 89.588024987780 -20.572963901609 -7.918537497740
267 1 91.454442175097 -22.858848779565 -9.238293747375
268 1 92.387650768660 -22.858848779565 -11.877806246622
269 1 -89.588024987780 -16.001194145696 -7.918537497740
270 1 -87.721607800463 -18.287079023652 -9.238293747375
271 1 -82.122356238893 -16.001194145696 -5.279024998493
272 1 -77.456313270697 -16.001194145696 -10.558049996987
273 1 -70.923853115373 -18.287079023652 -9.238293747375
274 1 -69.057435928057 -16.001194145696 -10.558049996987
275 1 -55.059307023847 -16.001194145696 -10.558049996987
276 1 -54.126098430093 -18.287079023652 -9.238293747375
277 1 -53.192889836530 -16.001194145696 -7.918537497740
278 1 -52.259681242967 -18.287079023652 -6.598781248129
279 1 -50.393264055650 -18.287079023652 -11.877806246622
280 1 -49.460055462087 -16.001194145696 -10.558049996987
281 1 -42.927595306573 -18.287079023652 -9.238293747375
282 1 -42.927595306573 -16.001194145696 -5.279024998493
283 1 -41.061178119447 -16.001194145696 -10.558049996987
284 1 -39.194760932130 -18.287079023652 -11.877806246622
285 1 -37.328343745004 -16.001194145696 -5.279024998493
286 1 -35.461926557687 -16.001194145696 -10.558049996987
287 1 -34.528717964123 -18.287079023652 -9.238293747375
288 1 -33.595509370370 -18.287079023652 -11.877806246622
289 1 -30.795883589490 -16.001194145696 -7.918537497740
290 1 -26.129840621483 -16.001194145696 -5.279024998493
291 1 -20.530589059723 -18.287079023652 -9.238293747375
292 1 -16.797754685280 -18.287079023652 -11.877806246622
293 1 -13.998128904400 -18.287079023652 -11.877806246622
294 1 -5.599251561760 -18.287079023652 -11.877806246622
295 1 -1.866417187317 -16.001194145696 -10.558049996987
296 1 4.666042968197 -18.287079023652 -9.238293747375
297 1 10.265294529767 -18.287079023652 -9.238293747375
298 1 15.864546091527 -18.287079023652 -9.238293747375
299 1 19.597380466160 -18.287079023652 -11.877806246622
300 1 27.063049215047 -16.001194145696 -5.279024998493
301 1 33.595509370370 -16.001194145696 -7.918537497740
302 1 34.528717964123 -16.001194145696 -10.558049996987
303 1 56.925724210973 -16.001194145696 -10.558049996987
304 1 61.591767179170 -18.287079023652 -11.877806246622
305 1 66.257810147177 -18.287079023652 -9.238293747375
306 1 76.523104677133 -16.001194145696 -10.558049996987
307 1 80.255939051577 -16.001194145696 -5.279024998493
308 1 92.387650768660 -16.001194145696 -7.918537497740
309 1 -86.788399206900 -11.429424389783 -7.918537497740
310 1 -83.988773426020 -11.429424389783 -7.918537497740
311 1 -80.255939051577 -11.429424389783 -10.558049996987
312 1 -79.322730458013 -13.715309267739 -9.238293747375
313 1 -76.523104677133 -13.715309267739 -9.238293747375
314 1 -75.589896083380 -13.715309267739 -11.877806246622
315 1 -74.656687489817 -13.715309267739 -6.598781248129
316 1 -73.723478896253 -13.715309267739 -9.238293747375
317 1 -69.990644521810 -13.715309267739 -11.877806246622
318 1 -63.458184366297 -13.715309267739 -6.598781248129
319 1 -62.524975772733 -13.715309267739 -9.238293747375
320 1 -53.192889836530 -11.429424389783 -7.918537497740
321 1 -48.526846868333 -11.429424389783 -5.279024998493
322 1 -46.660429681207 -13.715309267739 -6.598781248129
323 1 -41.994386713010 -13.715309267739 -11.877806246622
324 1 -41.061178119447 -11.429424389783 -10.558049996987
325 1 -28.929466402363 -11.429424389783 -5.279024998493
326 1 -27.996257808610 -11.429424389783 -7.918537497740
327 1 -27.063049215047 -13.715309267739 -6.598781248129
328 1 -22.397006247040 -11.429424389783 -7.918537497740
329 1 -15.864546091527 -13.715309267739 -6.598781248129
330 1 -11.198503123520 -11.429424389783 -7.918537497740
331 1 -7.465668749077 -13.715309267739 -6.598781248129
332 1 -4.666042968197 -13.715309267739 -6.598781248129
333 1 -1.866417187317 -13.715309267739 -6.598781248129
334 1 4.666042968197 -13.715309267739 -9.238293747375
335 1 5.599251561760 -11.429424389783 -7.918537497740
336 1 7.465668749077 -13.715309267739 -9.238293747375
337 1 11.198503123520 -13.715309267739 -11.877806246622
338 1 11.198503123520 -11.429424389783 -7.918537497740
339 1 16.797754685280 -13.715309267739 -11.877806246622
340 1 16.797754685280 -11.429424389783 -7.918537497740
341 1 20.530589059723 -11.429424389783 -10.558049996987
342 1 21.463797653287 -13.715309267739 -9.238293747375
343 1 21.463797653287 -11.429424389783 -5.279024998493
344 1 26.129840621483 -11.429424389783 -10.558049996987
345 1 43.860803900327 -13.715309267739 -9.238293747375
346 1 50.393264055650 -11.429424389783 -7.918537497740
347 1 51.326472649213 -13.715309267739 -6.598781248129
348 1 52.259681242967 -11.429424389783 -5.279024998493
349 1 56.925724210973 -13.715309267739 -6.598781248129
350 1 65.324601553613 -11.429424389783 -10.558049996987
351 1 67.191018740930 -13.715309267739 -11.877806246622
352 1 70.923853115373 -11.429424389783 -10.558049996987
353 1 77.456313270697 -11.429424389783 -5.279024998493
354 1 79.322730458013 -11.429424389783 -10.558049996987
355 1 81.189147645140 -13.715309267739 -11.877806246622
356 1 81.189147645140 -11.429424389783 -7.918537497740
357 1 -83.988773426020 -9.143539511826 -11.877806246622
358 1 -79.322730458013 -6.857654633870 -5.279024998493
359 1 -70.923853115373 -6.857654633870 -5.279024998493
360 1 -69.990644521810 -6.857654633870 -7.918537497740
361 1 -69.057435928057 -9.143539511826 -6.598781248129
362 1 -64.391392960050 -9.143539511826 -11.877806246622
363 1 -59.725349991853 -6.857654633870 -5.279024998493
364 1 -56.925724210973 -9.143539511826 -9.238293747375
365 1 -55.059307023847 -9.143539511826 -6.598781248129
366 1 -50.393264055650 -6.857654633870 -7.918537497740
367 1 -46.660429681207 -9.143539511826 -6.598781248129
368 1 -41.994386713010 -9.143539511826 -11.877806246622
369 1 -39.194760932130 -9.143539511826 -11.877806246622
370 1 -28.929466402363 -6.857654633870 -5.279024998493
371 1 -22.397006247040 -6.857654633870 -7.918537497740
372 1 -14.931337497963 -9.143539511826 -9.238293747375
373 1 -11.198503123520 -9.143539511826 -11.877806246622
374 1 -6.532460155323 -6.857654633870 -5.279024998493
375 1 -4.666042968197 -9.143539511826 -6.598781248129
376 1 -3.732834374443 -9.143539511826 -9.238293747375
377 1 -0.933208593563 -6.857654633870 -5.279024998493
378 1 5.599251561760 -9.143539511826 -11.877806246622
379 1 13.064920310647 -9.143539511826 -9.238293747375
380 1 17.730963278843 -6.857654633870 -10.558049996987
381 1 19.597380466160 -6.857654633870 -7.918537497740
382 1 21.463797653287 -9.143539511826 -9.238293747375
383 1 29.862674995927 -9.143539511826 -9.238293747375
384 1 29.862674995927 -6.857654633870 -5.279024998493
385 1 30.795883589490 -6.857654633870 -7.918537497740
386 1 40.127969525693 -9.143539511826 -6.598781248129
387 1 47.593638274770 -9.143539511826 -11.877806246622
388 1 52.259681242967 -9.143539511826 -9.238293747375
389 1 54.126098430093 -6.857654633870 -10.558049996987
390 1 56.925724210973 -9.143539511826 -6.598781248129
391 1 58.792141398290 -9.143539511826 -11.877806246622
392 1 59.725349991853 -6.857654633870 -10.558049996987
393 1 62.524975772733 -6.857654633870 -10.558049996987
394 1 65.324601553613 -6.857654633870 -10.558049996987
395 1 69.057435928057 -6.857654633870 -5.279024998493
396 1 70.923853115373 -9.143539511826 -6.598781248129
397 1 73.723478896253 -9.143539511826 -6.598781248129
398 1 81.189147645140 -9.143539511826 -11.877806246622
399 1 82.122356238893 -9.143539511826 -6.598781248129
400 1 92.387650768660 -9.143539511826 -11.877806246622
401 1 -88.654816394217 -4.571769755913 -6.598781248129
402 1 -87.721607800463 -2.285884877957 -5.279024998493
403 1 -83.988773426020 -2.285884877957 -7.918537497740
404 1 -79.322730458013 -2.285884877957 -5.279024998493
405 1 -62.524975772733 -4.571769755913 -9.238293747375
406 1 -62.524975772733 -2.285884877957 -5.279024998493
407 1 -60.658558585417 -2.285884877957 -10.558049996987
408 1 -53.192889836530 -4.571769755913 -11.877806246622
409 1 -52.259681242967 -2.285884877957 -10.558049996987
410 1 -46.660429681207 -4.571769755913 -6.598781248129
411 1 -41.061178119447 -4.571769755913 -6.598781248129
412 1 -40.127969525693 -2.285884877957 -5.279024998493
413 1 -23.330214840603 -4.571769755913 -9.238293747375
414 1 -17.730963278843 -2.285884877957 -5.279024998493
415 1 -15.864546091527 -2.285884877957 -10.558049996987
416 1 -14.931337497963 -2.285884877957 -5.279024998493
417 1 -13.998128904400 -2.285884877957 -7.918537497740
418 1 -13.064920310647 -4.571769755913 -6.598781248129
419 1 -12.131711717083 -2.285884877957 -5.279024998493
420 1 -11.198503123520 -2.285884877957 -7.918537497740
421 1 8.398877342640 -2.285884877957 -7.918537497740
422 1 13.998128904400 -4.571769755913 -11.877806246622
423 1 17.730963278843 -4.571769755913 -6.598781248129
424 1 20.530589059723 -2.285884877957 -10.558049996987
425 1 22.397006247040 -2.285884877957 -7.918537497740
426 1 33.595509370370 -4.571769755913 -11.877806246622
427 1 38.261552338567 -4.571769755913 -9.238293747375
428 1 52.259681242967 -2.285884877957 -5.279024998493
429 1 54.126098430093 -4.571769755913 -6.598781248129
430 1 60.658558585417 -4.571769755913 -9.238293747375
431 1 66.257810147177 -2.285884877957 -5.279024998493
432 1 68.124227334493 -4.571769755913 -6.598781248129
433 1 75.589896083380 -2.285884877957 -7.918537497740
434 1 -93.320859362223 0.000000000000 -9.238293747375
435 1 -89.588024987780 0.000000000000 -11.877806246622
436 1 -73.723478896253 2.285884877957 -5.279024998493
437 1 -72.790270302500 2.285884877957 -7.918537497740
438 1 -69.057435928057 2.285884877957 -10.558049996987
439 1 -63.458184366297 2.285884877957 -10.558049996987
440 1 -50.393264055650 2.285884877957 -7.918537497740
441 1 -41.061178119447 0.000000000000 -6.598781248129
442 1 -40.127969525693 0.000000000000 -9.238293747375
443 1 -39.194760932130 2.285884877957 -7.918537497740
444 1 -27.996257808610 2.285884877957 -7.918537497740
445 1 -21.463797653287 0.000000000000 -6.598781248129
446 1 -19.597380466160 2.285884877957 -7.918537497740
447 1 -15.864546091527 0.000000000000 -6.598781248129
448 1 -14.931337497963 2.285884877957 -5.279024998493
449 1 -13.064920310647 0.000000000000 -6.598781248129
450 1 5.599251561760 2.285884877957 -7.918537497740
451 1 11.198503123520 0.000000000000 -11.877806246622
452 1 19.597380466160 0.000000000000 -11.877806246622
453 1 28.929466402363 2.285884877957 -10.558049996987
454 1 32.662300776807 2.285884877957 -5.279024998493
455 1 36.395135151250 0.000000000000 -11.877806246622
456 1 36.395135151250 2.285884877957 -7.918537497740
457 1 50.393264055650 0.000000000000 -11.877806246622
458 1 52.259681242967 0.000000000000 -9.238293747375
459 1 52.259681242967 2.285884877957 -5.279024998493
460 1 56.925724210973 0.000000000000 -6.598781248129
461 1 66.257810147177 0.000000000000 -9.238293747375
462 1 71.857061708937 0.000000000000 -9.238293747375
463 1 76.523104677133 0.000000000000 -6.598781248129
464 1 79.322730458013 2.285884877957 -10.558049996987
465 1 82.122356238893 2.285884877957 -10.558049996987
466 1 83.988773426020 0.000000000000 -11.877806246622
467 1 84.921982019774 0.000000000000 -6.598781248129
468 1 85.855190613337 0.000000000000 -9.238293747375
469 1 91.454442175097 2.285884877957 -5.279024998493
470 1 92.387650768660 2.285884877957 -7.918537497740
471 1 -95.187276549540 4.571769755913 -11.877806246622
472 1 -94.254067955977 4.571769755913 -6.598781248129
473 1 -91.454442175097 6.857654633870 -10.558049996987
474 1 -87.721607800463 4.571769755913 -9.238293747375
475 1 -80.255939051577 6.857654633870 -10.558049996987
476 1 -78.389521864260 4.571769755913 -11.877806246622
477 1 -78.389521864260 6.857654633870 -7.918537497740
478 1 -75.589896083380 4.571769755913 -11.877806246622
479 1 -70.923853115373 4.571769755913 -9.238293747375
480 1 -58.792141398290 4.571769755913 -11.877806246622
481 1 -55.059307023847 4.571769755913 -6.598781248129
482 1 -52.259681242967 4.571769755913 -6.598781248129
483 1 -51.326472649213 4.571769755913 -9.238293747375
484 1 -48.526846868333 6.857654633870 -5.279024998493
485 1 -37.328343745004 4.571769755913 -9.238293747375
486 1 -36.395135151250 6.857654633870 -7.918537497740
487 1 -35.461926557687 6.857654633870 -10.558049996987
488 1 -33.595509370370 4.571769755913 -11.877806246622
489 1 -29.862674995927 4.571769755913 -6.598781248129
490 1 -27.996257808610 4.571769755913 -11.877806246622
491 1 -21.463797653287 6.857654633870 -10.558049996987
492 1 -19.597380466160 6.857654633870 -7.918537497740
493 1 -15.864546091527 6.857654633870 -10.558049996987
494 1 -12.131711717083 4.571769755913 -9.238293747375
495 1 -11.198503123520 4.571769755913 -11.877806246622
496 1 -10.265294529766 4.571769755913 -6.598781248129
497 1 -10.265294529766 6.857654633870 -10.558049996987
498 1 -9.332085936203 6.857654633870 -5.279024998493
499 1 -8.398877342640 4.571769755913 -11.877806246622
500 1 -1.866417187317 6.857654633870 -10.558049996987
501 1 12.131711717083 6.857654633870 -10.558049996987
502 1 13.064920310647 6.857654633870 -5.279024998493
503 1 17.730963278843 6.857654633870 -10.558049996987
504 1 22.397006247040 4.571769755913 -11.877806246622
505 1 30.795883589490 6.857654633870 -7.918537497740
506 1 31.729092183243 4.571769755913 -6.598781248129
507 1 33.595509370370 6.857654633870 -7.918537497740
508 1 36.395135151250 4.571769755913 -11.877806246622
509 1 40.127969525693 4.571769755913 -6.598781248129
510 1 55.992515617410 6.857654633870 -7.918537497740
511 1 62.524975772733 6.857654633870 -10.558049996987
512 1 68.124227334493 6.857654633870 -10.558049996987
513 1 80.255939051577 4.571769755913 -9.238293747375
514 1 85.855190613337 4.571769755913 -9.238293747375
515 1 89.588024987780 6.857654633870 -7.918537497740
516 1 91.454442175097 4.571769755913 -9.238293747375
517 1 -83.988773426020 9.143539511826 -11.877806246622
518 1 -83.988773426020 11.429424389783 -7.918537497740
519 1 -82.122356238893 9.143539511826 -9.238293747375
520 1 -78.389521864260 11.429424389783 -7.918537497740
521 1 -76.523104677133 9.143539511826 -9.238293747375
522 1 -76.523104677133 11.429424389783 -5.279024998493
523 1 -69.990644521810 11.429424389783 -7.918537497740
524 1 -69.057435928057 9.143539511826 -6.598781248129
525 1 -65.324601553613 11.429424389783 -5.279024998493
526 1 -63.458184366297 11.429424389783 -10.558049996987
527 1 -61.591767179170 11.429424389783 -7.918537497740
528 1 -57.858932804537 9.143539511826 -6.598781248129
529 1 -48.526846868333 11.429424389783 -5.279024998493
530 1 -46.660429681207 9.143539511826 -6.598781248129
531 1 -42.927595306573 11.429424389783 -5.279024998493
532 1 -35.461926557687 11.429424389783 -10.558049996987
533 1 -25.196632027730 9.143539511826 -11.877806246622
534 1 -25.196632027730 11.429424389783 -7.918537497740
535 1 -23.330214840603 9.143539511826 -9.238293747375
536 1 -22.397006247040 9.143539511826 -11.877806246622
537 1 -9.332085936203 11.429424389783 -5.279024998493
538 1 8.398877342640 9.143539511826 -11.877806246622
539 1 11.198503123520 9.143539511826 -11.877806246622