LAMMPS (5 Jun 2019)
# in.uniaxialstrain
# Verify MDStressLab work properly
# Min Shi
# Version 1.0

clear

variable lattice_constant equal 5.29216036151419 #Lattice parameter
variable unit_cells_x     equal 10
variable unit_cells_y     equal 10 #Must be even
variable unit_cells_z     equal 10

units           metal
boundary        p p p
atom_style      atomic
atom_modify	map array
atom_modify     sort 0 0 # Must have in every simulation to prevent atom id changing

#create lattice
lattice         custom 1.0 a1              5.29216036151419 0 0 a2              0 5.29216036151419 0 a3              0 0 5.29216036151419 basis           0 0 0 basis           0 0.5 0.5 basis           0.5 0 0.5 basis           0.5 0.5 0
Lattice spacing in x,y,z = 5.29216 5.29216 5.29216
region          box block 0 ${unit_cells_x} 0 ${unit_cells_y} 0 ${unit_cells_z} units lattice
region          box block 0 10 0 ${unit_cells_y} 0 ${unit_cells_z} units lattice
region          box block 0 10 0 10 0 ${unit_cells_z} units lattice
region          box block 0 10 0 10 0 10 units lattice
create_box      1 box
Created orthogonal box = (0 0 0) to (52.9216 52.9216 52.9216)
  1 by 1 by 1 MPI processor grid
create_atoms    1 box
Created 4000 atoms
  create_atoms CPU = 0.000611791 secs

pair_style kim LJ_Smoothed_Bernardes_1958_Ar__MO_764178710049_001
WARNING: KIM Model does not provide `partialParticleVirial'; virial per atom will be zero (../pair_kim.cpp:1089)
pair_coeff * * Ar
mass 1 39.9481

compute spatom all stress/atom NULL
compute vol_atom all voronoi/atom
variable p1 atom "c_spatom[1]/c_vol_atom[1]/10000/160.21766208"
variable p2 atom "c_spatom[2]/c_vol_atom[1]/10000/160.21766208"
variable p3 atom "c_spatom[3]/c_vol_atom[1]/10000/160.21766208"
variable p4 atom "c_spatom[4]/c_vol_atom[1]/10000/160.21766208"
variable p5 atom "c_spatom[5]/c_vol_atom[1]/10000/160.21766208"
variable p6 atom "c_spatom[6]/c_vol_atom[1]/10000/160.21766208"
variable p7 equal "-pxx/10000/160.21766208"
variable p8 equal "-pyy/10000/160.21766208"
variable p9 equal "-pzz/10000/160.21766208"

compute        p all reduce sum c_spatom[1] c_spatom[2] c_spatom[3]
variable       press equal -(c_p[1]+c_p[2]+c_p[3])/(3*vol)
variable       press1 equal (c_p[1])/(vol)/10000/160.21766208
variable       press2 equal (c_p[2])/(vol)/10000/160.21766208
variable       press3 equal (c_p[3])/(vol)/10000/160.21766208
thermo_style   custom step temp etotal press v_press v_press1 v_press2 v_press3

reset_timestep 0

dump          1 all custom 1 dump.initial.* id type x y z v_p1 v_p2 v_p3 v_p4 v_p5 v_p6
dump_modify   1 element Ar format line "%d %d %25.16lf %25.16lf %25.16lf %25.16lf %25.16lf %25.16lf %25.16lf %25.16lf %25.16lf"

run		      0	#to update thermo data
WARNING: No fixes defined, atoms won't move (../verlet.cpp:55)
Neighbor list info ...
  update every 1 steps, delay 10 steps, check yes
  max neighbors/atom: 2000, page size: 100000
  master list distance cutoff = 10.5
  ghost atom cutoff = 10.5
  binsize = 5.25, bins = 11 11 11
  1 neighbor lists, perpetual/occasional/extra = 1 0 0
  (1) pair kim, perpetual
      attributes: full, newton off, cut 10.5
      pair build: full/bin/atomonly
      stencil: full/bin/3d
      bin: standard
Per MPI rank memory allocation (min/avg/max) = 8.636 | 8.636 | 8.636 Mbytes
Step Temp TotEng Press v_press v_press1 v_press2 v_press3 
       0            0   -283.03075 4.6851894e-11           -0            0            0            0 
Loop time of 1.34506e-06 on 1 procs for 0 steps with 4000 atoms

223.0% CPU use with 1 MPI tasks x no OpenMP threads

MPI task timing breakdown:
Section |  min time  |  avg time  |  max time  |%varavg| %total
---------------------------------------------------------------
Pair    | 0          | 0          | 0          |   0.0 |  0.00
Neigh   | 0          | 0          | 0          |   0.0 |  0.00
Comm    | 0          | 0          | 0          |   0.0 |  0.00
Output  | 0          | 0          | 0          |   0.0 |  0.00
Modify  | 0          | 0          | 0          |   0.0 |  0.00
Other   |            | 1.345e-06  |            |       |100.00

Nlocal:    4000 ave 4000 max 4000 min
Histogram: 1 0 0 0 0 0 0 0 0 0
Nghost:    5841 ave 5841 max 5841 min
Histogram: 1 0 0 0 0 0 0 0 0 0
Neighs:    0 ave 0 max 0 min
Histogram: 1 0 0 0 0 0 0 0 0 0
FullNghs:  536000 ave 536000 max 536000 min
Histogram: 1 0 0 0 0 0 0 0 0 0

Total # of neighbors = 536000
Ave neighs/atom = 134
Neighbor list builds = 0
Dangerous builds = 0

undump 1

clear

variable lattice_constant equal 5.29216036151419 #Lattice parameter
variable unit_cells_x     equal 10
variable unit_cells_y     equal 10 #Must be even
variable unit_cells_z     equal 10

units           metal
boundary        p p p
atom_style      atomic
atom_modify	map array
atom_modify     sort 0 0 # Must have in every simulation to prevent atom id changing

#create lattice
lattice         custom 1.0 a1              5.29216565367455151419 0.0 0 a2              0 5.29216036151419 0 a3              0 0 5.29216036151419 basis           0 0 0 basis           0 0.5 0.5 basis           0.5 0 0.5 basis           0.5 0.5 0
Lattice spacing in x,y,z = 5.29217 5.29216 5.29216

region          box block 0 ${unit_cells_x} 0 ${unit_cells_y} 0 ${unit_cells_z} units lattice
region          box block 0 10 0 ${unit_cells_y} 0 ${unit_cells_z} units lattice
region          box block 0 10 0 10 0 ${unit_cells_z} units lattice
region          box block 0 10 0 10 0 10 units lattice
create_box      1 box
Created orthogonal box = (0 0 0) to (52.9217 52.9216 52.9216)
  1 by 1 by 1 MPI processor grid
create_atoms    1 box
Created 4000 atoms
  create_atoms CPU = 0.000558027 secs

pair_style kim LJ_Smoothed_Bernardes_1958_Ar__MO_764178710049_001
WARNING: KIM Model does not provide `partialParticleVirial'; virial per atom will be zero (../pair_kim.cpp:1089)
pair_coeff * * Ar
mass 1 39.9481

compute spatom all stress/atom NULL
compute vol_atom all voronoi/atom
variable p1 atom "c_spatom[1]/c_vol_atom[1]/10000/160.21766208"
variable p2 atom "c_spatom[2]/c_vol_atom[1]/10000/160.21766208"
variable p3 atom "c_spatom[3]/c_vol_atom[1]/10000/160.21766208"
variable p4 atom "c_spatom[4]/c_vol_atom[1]/10000/160.21766208"
variable p5 atom "c_spatom[5]/c_vol_atom[1]/10000/160.21766208"
variable p6 atom "c_spatom[6]/c_vol_atom[1]/10000/160.21766208"
variable p7 equal "-pxx/10000/160.21766208"
variable p8 equal "-pyy/10000/160.21766208"
variable p9 equal "-pzz/10000/160.21766208"

compute        p all reduce sum c_spatom[1] c_spatom[2] c_spatom[3]
variable       press equal -(c_p[1]+c_p[2]+c_p[3])/(3*vol)
variable       press1 equal (c_p[1])/(vol)/10000/160.21766208
variable       press2 equal (c_p[2])/(vol)/10000/160.21766208
variable       press3 equal (c_p[3])/(vol)/10000/160.21766208
thermo_style   custom step temp etotal press v_press v_press1 v_press2 v_press3

reset_timestep 1

dump           2 all custom 1 dump.final.* id type x y z v_p1 v_p2 v_p3 v_p4 v_p5 v_p6
dump_modify    2 element Ar format line "%d %d %25.16lf %25.16lf %25.16lf %25.16lf %25.16lf %25.16lf %25.16lf %25.16lf %25.16lf"

run 0
WARNING: No fixes defined, atoms won't move (../verlet.cpp:55)
Neighbor list info ...
  update every 1 steps, delay 10 steps, check yes
  max neighbors/atom: 2000, page size: 100000
  master list distance cutoff = 10.5
  ghost atom cutoff = 10.5
  binsize = 5.25, bins = 11 11 11
  1 neighbor lists, perpetual/occasional/extra = 1 0 0
  (1) pair kim, perpetual
      attributes: full, newton off, cut 10.5
      pair build: full/bin/atomonly
      stencil: full/bin/3d
      bin: standard
Per MPI rank memory allocation (min/avg/max) = 8.636 | 8.636 | 8.636 Mbytes
Step Temp TotEng Press v_press v_press1 v_press2 v_press3 
       1            0   -283.03075 -0.026624923           -0            0            0            0 
Loop time of 2.29105e-06 on 1 procs for 0 steps with 4000 atoms

392.8% CPU use with 1 MPI tasks x no OpenMP threads

MPI task timing breakdown:
Section |  min time  |  avg time  |  max time  |%varavg| %total
---------------------------------------------------------------
Pair    | 0          | 0          | 0          |   0.0 |  0.00
Neigh   | 0          | 0          | 0          |   0.0 |  0.00
Comm    | 0          | 0          | 0          |   0.0 |  0.00
Output  | 0          | 0          | 0          |   0.0 |  0.00
Modify  | 0          | 0          | 0          |   0.0 |  0.00
Other   |            | 2.291e-06  |            |       |100.00

Nlocal:    4000 ave 4000 max 4000 min
Histogram: 1 0 0 0 0 0 0 0 0 0
Nghost:    5841 ave 5841 max 5841 min
Histogram: 1 0 0 0 0 0 0 0 0 0
Neighs:    0 ave 0 max 0 min
Histogram: 1 0 0 0 0 0 0 0 0 0
FullNghs:  536000 ave 536000 max 536000 min
Histogram: 1 0 0 0 0 0 0 0 0 0

Total # of neighbors = 536000
Ave neighs/atom = 134
Neighbor list builds = 0
Dangerous builds = 0
undump 2
Total wall time: 0:00:00
