# fcc oriented X=[100] Y=[010] Z=[001].

4000 atoms
1 atom types

0.0   52.9216036151419047 xlo xhi
0.0   53.4508196512933154 ylo yhi
0.0   52.9216036151419047 zlo zhi
0 0 0 xy xz yz

Masses

1 92.908 #Ar

Atoms # atomic
 1      1         0.0000000000000000        0.0000000000000000        0.0000000000000000   
 2      1         0.0000000000000000        2.6725409825646658        2.6460801807570951   
 3      1         2.6460801807570951        0.0000000000000000        2.6460801807570951   
 4      1         2.6460801807570951        2.6725409825646658        0.0000000000000000   
 5      1         5.2921603615141901        0.0000000000000000        0.0000000000000000   
 6      1         5.2921603615141901        2.6725409825646658        2.6460801807570951   
 7      1         7.9382405422712852        0.0000000000000000        2.6460801807570951   
 8      1         7.9382405422712852        2.6725409825646658        0.0000000000000000   
 9      1        10.5843207230283802        0.0000000000000000        0.0000000000000000   
 10     1        10.5843207230283802        2.6725409825646658        2.6460801807570951   
 11     1        13.2304009037854762        0.0000000000000000        2.6460801807570951   
 12     1        13.2304009037854762        2.6725409825646658        0.0000000000000000   
 13     1        15.8764810845425703        0.0000000000000000        0.0000000000000000   
 14     1        15.8764810845425703        2.6725409825646658        2.6460801807570951   
 15     1        18.5225612652996645        0.0000000000000000        2.6460801807570951   
 16     1        18.5225612652996645        2.6725409825646658        0.0000000000000000   
 17     1        21.1686414460567605        0.0000000000000000        0.0000000000000000   
 18     1        21.1686414460567605        2.6725409825646658        2.6460801807570951   
 19     1        23.8147216268138564        0.0000000000000000        2.6460801807570951   
 20     1        23.8147216268138564        2.6725409825646658        0.0000000000000000   
 21     1        26.4608018075709523        0.0000000000000000        0.0000000000000000   
 22     1        26.4608018075709523        2.6725409825646658        2.6460801807570951   
 23     1        29.1068819883280447        0.0000000000000000        2.6460801807570951   
 24     1        29.1068819883280447        2.6725409825646658        0.0000000000000000   
 25     1        31.7529621690851407        0.0000000000000000        0.0000000000000000   
 26     1        31.7529621690851407        2.6725409825646658        2.6460801807570951   
 27     1        34.3990423498422331        0.0000000000000000        2.6460801807570951   
 28     1        34.3990423498422331        2.6725409825646658        0.0000000000000000   
 29     1        37.0451225305993290        0.0000000000000000        0.0000000000000000   
 30     1        37.0451225305993290        2.6725409825646658        2.6460801807570951   
 31     1        39.6912027113564250        0.0000000000000000        2.6460801807570951   
 32     1        39.6912027113564250        2.6725409825646658        0.0000000000000000   
 33     1        42.3372828921135209        0.0000000000000000        0.0000000000000000   
 34     1        42.3372828921135209        2.6725409825646658        2.6460801807570951   
 35     1        44.9833630728706169        0.0000000000000000        2.6460801807570951   
 36     1        44.9833630728706169        2.6725409825646658        0.0000000000000000   
 37     1        47.6294432536277128        0.0000000000000000        0.0000000000000000   
 38     1        47.6294432536277128        2.6725409825646658        2.6460801807570951   
 39     1        50.2755234343848088        0.0000000000000000        2.6460801807570951   
 40     1        50.2755234343848088        2.6725409825646658        0.0000000000000000   
 41     1         0.0000000000000000        5.3450819651293315        0.0000000000000000   
 42     1         0.0000000000000000        8.0176229476939973        2.6460801807570951   
 43     1         2.6460801807570951        5.3450819651293315        2.6460801807570951   
 44     1         2.6460801807570951        8.0176229476939973        0.0000000000000000   
 45     1         5.2921603615141901        5.3450819651293315        0.0000000000000000   
 46     1         5.2921603615141901        8.0176229476939973        2.6460801807570951   
 47     1         7.9382405422712852        5.3450819651293315        2.6460801807570951   
 48     1         7.9382405422712852        8.0176229476939973        0.0000000000000000   
 49     1        10.5843207230283802        5.3450819651293315        0.0000000000000000   
 50     1        10.5843207230283802        8.0176229476939973        2.6460801807570951   
 51     1        13.2304009037854762        5.3450819651293315        2.6460801807570951   
 52     1        13.2304009037854762        8.0176229476939973        0.0000000000000000   
 53     1        15.8764810845425703        5.3450819651293315        0.0000000000000000   
 54     1        15.8764810845425703        8.0176229476939973        2.6460801807570951   
 55     1        18.5225612652996645        5.3450819651293315        2.6460801807570951   
 56     1        18.5225612652996645        8.0176229476939973        0.0000000000000000   
 57     1        21.1686414460567605        5.3450819651293315        0.0000000000000000   
 58     1        21.1686414460567605        8.0176229476939973        2.6460801807570951   
 59     1        23.8147216268138564        5.3450819651293315        2.6460801807570951   
 60     1        23.8147216268138564        8.0176229476939973        0.0000000000000000   
 61     1        26.4608018075709523        5.3450819651293315        0.0000000000000000   
 62     1        26.4608018075709523        8.0176229476939973        2.6460801807570951   
 63     1        29.1068819883280447        5.3450819651293315        2.6460801807570951   
 64     1        29.1068819883280447        8.0176229476939973        0.0000000000000000   
 65     1        31.7529621690851407        5.3450819651293315        0.0000000000000000   
 66     1        31.7529621690851407        8.0176229476939973        2.6460801807570951   
 67     1        34.3990423498422331        5.3450819651293315        2.6460801807570951   
 68     1        34.3990423498422331        8.0176229476939973        0.0000000000000000   
 69     1        37.0451225305993290        5.3450819651293315        0.0000000000000000   
 70     1        37.0451225305993290        8.0176229476939973        2.6460801807570951   
 71     1        39.6912027113564250        5.3450819651293315        2.6460801807570951   
 72     1        39.6912027113564250        8.0176229476939973        0.0000000000000000   
 73     1        42.3372828921135209        5.3450819651293315        0.0000000000000000   
 74     1        42.3372828921135209        8.0176229476939973        2.6460801807570951   
 75     1        44.9833630728706169        5.3450819651293315        2.6460801807570951   
 76     1        44.9833630728706169        8.0176229476939973        0.0000000000000000   
 77     1        47.6294432536277128        5.3450819651293315        0.0000000000000000   
 78     1        47.6294432536277128        8.0176229476939973        2.6460801807570951   
 79     1        50.2755234343848088        5.3450819651293315        2.6460801807570951   
 80     1        50.2755234343848088        8.0176229476939973        0.0000000000000000   
 81     1         0.0000000000000000       10.6901639302586631        0.0000000000000000   
 82     1         0.0000000000000000       13.3627049128233288        2.6460801807570951   
 83     1         2.6460801807570951       10.6901639302586631        2.6460801807570951   
 84     1         2.6460801807570951       13.3627049128233288        0.0000000000000000   
 85     1         5.2921603615141901       10.6901639302586631        0.0000000000000000   
 86     1         5.2921603615141901       13.3627049128233288        2.6460801807570951   
 87     1         7.9382405422712852       10.6901639302586631        2.6460801807570951   
 88     1         7.9382405422712852       13.3627049128233288        0.0000000000000000   
 89     1        10.5843207230283802       10.6901639302586631        0.0000000000000000   
 90     1        10.5843207230283802       13.3627049128233288        2.6460801807570951   
 91     1        13.2304009037854762       10.6901639302586631        2.6460801807570951   
 92     1        13.2304009037854762       13.3627049128233288        0.0000000000000000   
 93     1        15.8764810845425703       10.6901639302586631        0.0000000000000000   
 94     1        15.8764810845425703       13.3627049128233288        2.6460801807570951   
 95     1        18.5225612652996645       10.6901639302586631        2.6460801807570951   
 96     1        18.5225612652996645       13.3627049128233288        0.0000000000000000   
 97     1        21.1686414460567605       10.6901639302586631        0.0000000000000000   
 98     1        21.1686414460567605       13.3627049128233288        2.6460801807570951   
 99     1        23.8147216268138564       10.6901639302586631        2.6460801807570951   
 100    1        23.8147216268138564       13.3627049128233288        0.0000000000000000   
 101    1        26.4608018075709523       10.6901639302586631        0.0000000000000000   
 102    1        26.4608018075709523       13.3627049128233288        2.6460801807570951   
 103    1        29.1068819883280447       10.6901639302586631        2.6460801807570951   
 104    1        29.1068819883280447       13.3627049128233288        0.0000000000000000   
 105    1        31.7529621690851407       10.6901639302586631        0.0000000000000000   
 106    1        31.7529621690851407       13.3627049128233288        2.6460801807570951   
 107    1        34.3990423498422331       10.6901639302586631        2.6460801807570951   
 108    1        34.3990423498422331       13.3627049128233288        0.0000000000000000   
 109    1        37.0451225305993290       10.6901639302586631        0.0000000000000000   
 110    1        37.0451225305993290       13.3627049128233288        2.6460801807570951   
 111    1        39.6912027113564250       10.6901639302586631        2.6460801807570951   
 112    1        39.6912027113564250       13.3627049128233288        0.0000000000000000   
 113    1        42.3372828921135209       10.6901639302586631        0.0000000000000000   
 114    1        42.3372828921135209       13.3627049128233288        2.6460801807570951   
 115    1        44.9833630728706169       10.6901639302586631        2.6460801807570951   
 116    1        44.9833630728706169       13.3627049128233288        0.0000000000000000   
 117    1        47.6294432536277128       10.6901639302586631        0.0000000000000000   
 118    1        47.6294432536277128       13.3627049128233288        2.6460801807570951   
 119    1        50.2755234343848088       10.6901639302586631        2.6460801807570951   
 120    1        50.2755234343848088       13.3627049128233288        0.0000000000000000   
 121    1         0.0000000000000000       16.0352458953879946        0.0000000000000000   
 122    1         0.0000000000000000       18.7077868779526604        2.6460801807570951   
 123    1         2.6460801807570951       16.0352458953879946        2.6460801807570951   
 124    1         2.6460801807570951       18.7077868779526604        0.0000000000000000   
 125    1         5.2921603615141901       16.0352458953879946        0.0000000000000000   
 126    1         5.2921603615141901       18.7077868779526604        2.6460801807570951   
 127    1         7.9382405422712852       16.0352458953879946        2.6460801807570951   
 128    1         7.9382405422712852       18.7077868779526604        0.0000000000000000   
 129    1        10.5843207230283802       16.0352458953879946        0.0000000000000000   
 130    1        10.5843207230283802       18.7077868779526604        2.6460801807570951   
 131    1        13.2304009037854762       16.0352458953879946        2.6460801807570951   
 132    1        13.2304009037854762       18.7077868779526604        0.0000000000000000   
 133    1        15.8764810845425703       16.0352458953879946        0.0000000000000000   
 134    1        15.8764810845425703       18.7077868779526604        2.6460801807570951   
 135    1        18.5225612652996645       16.0352458953879946        2.6460801807570951   
 136    1        18.5225612652996645       18.7077868779526604        0.0000000000000000   
 137    1        21.1686414460567605       16.0352458953879946        0.0000000000000000   
 138    1        21.1686414460567605       18.7077868779526604        2.6460801807570951   
 139    1        23.8147216268138564       16.0352458953879946        2.6460801807570951   
 140    1        23.8147216268138564       18.7077868779526604        0.0000000000000000   
 141    1        26.4608018075709523       16.0352458953879946        0.0000000000000000   
 142    1        26.4608018075709523       18.7077868779526604        2.6460801807570951   
 143    1        29.1068819883280447       16.0352458953879946        2.6460801807570951   
 144    1        29.1068819883280447       18.7077868779526604        0.0000000000000000   
 145    1        31.7529621690851407       16.0352458953879946        0.0000000000000000   
 146    1        31.7529621690851407       18.7077868779526604        2.6460801807570951   
 147    1        34.3990423498422331       16.0352458953879946        2.6460801807570951   
 148    1        34.3990423498422331       18.7077868779526604        0.0000000000000000   
 149    1        37.0451225305993290       16.0352458953879946        0.0000000000000000   
 150    1        37.0451225305993290       18.7077868779526604        2.6460801807570951   
 151    1        39.6912027113564250       16.0352458953879946        2.6460801807570951   
 152    1        39.6912027113564250       18.7077868779526604        0.0000000000000000   
 153    1        42.3372828921135209       16.0352458953879946        0.0000000000000000   
 154    1        42.3372828921135209       18.7077868779526604        2.6460801807570951   
 155    1        44.9833630728706169       16.0352458953879946        2.6460801807570951   
 156    1        44.9833630728706169       18.7077868779526604        0.0000000000000000   
 157    1        47.6294432536277128       16.0352458953879946        0.0000000000000000   
 158    1        47.6294432536277128       18.7077868779526604        2.6460801807570951   
 159    1        50.2755234343848088       16.0352458953879946        2.6460801807570951   
 160    1        50.2755234343848088       18.7077868779526604        0.0000000000000000   
 161    1         0.0000000000000000       21.3803278605173261        0.0000000000000000   
 162    1         0.0000000000000000       24.0528688430819919        2.6460801807570951   
 163    1         2.6460801807570951       21.3803278605173261        2.6460801807570951   
 164    1         2.6460801807570951       24.0528688430819919        0.0000000000000000   
 165    1         5.2921603615141901       21.3803278605173261        0.0000000000000000   
 166    1         5.2921603615141901       24.0528688430819919        2.6460801807570951   
 167    1         7.9382405422712852       21.3803278605173261        2.6460801807570951   
 168    1         7.9382405422712852       24.0528688430819919        0.0000000000000000   
 169    1        10.5843207230283802       21.3803278605173261        0.0000000000000000   
 170    1        10.5843207230283802       24.0528688430819919        2.6460801807570951   
 171    1        13.2304009037854762       21.3803278605173261        2.6460801807570951   
 172    1        13.2304009037854762       24.0528688430819919        0.0000000000000000   
 173    1        15.8764810845425703       21.3803278605173261        0.0000000000000000   
 174    1        15.8764810845425703       24.0528688430819919        2.6460801807570951   
 175    1        18.5225612652996645       21.3803278605173261        2.6460801807570951   
 176    1        18.5225612652996645       24.0528688430819919        0.0000000000000000   
 177    1        21.1686414460567605       21.3803278605173261        0.0000000000000000   
 178    1        21.1686414460567605       24.0528688430819919        2.6460801807570951   
 179    1        23.8147216268138564       21.3803278605173261        2.6460801807570951   
 180    1        23.8147216268138564       24.0528688430819919        0.0000000000000000   
 181    1        26.4608018075709523       21.3803278605173261        0.0000000000000000   
 182    1        26.4608018075709523       24.0528688430819919        2.6460801807570951   
 183    1        29.1068819883280447       21.3803278605173261        2.6460801807570951   
 184    1        29.1068819883280447       24.0528688430819919        0.0000000000000000   
 185    1        31.7529621690851407       21.3803278605173261        0.0000000000000000   
 186    1        31.7529621690851407       24.0528688430819919        2.6460801807570951   
 187    1        34.3990423498422331       21.3803278605173261        2.6460801807570951   
 188    1        34.3990423498422331       24.0528688430819919        0.0000000000000000   
 189    1        37.0451225305993290       21.3803278605173261        0.0000000000000000   
 190    1        37.0451225305993290       24.0528688430819919        2.6460801807570951   
 191    1        39.6912027113564250       21.3803278605173261        2.6460801807570951   
 192    1        39.6912027113564250       24.0528688430819919        0.0000000000000000   
 193    1        42.3372828921135209       21.3803278605173261        0.0000000000000000   
 194    1        42.3372828921135209       24.0528688430819919        2.6460801807570951   
 195    1        44.9833630728706169       21.3803278605173261        2.6460801807570951   
 196    1        44.9833630728706169       24.0528688430819919        0.0000000000000000   
 197    1        47.6294432536277128       21.3803278605173261        0.0000000000000000   
 198    1        47.6294432536277128       24.0528688430819919        2.6460801807570951   
 199    1        50.2755234343848088       21.3803278605173261        2.6460801807570951   
 200    1        50.2755234343848088       24.0528688430819919        0.0000000000000000   
 201    1         0.0000000000000000       26.7254098256466577        0.0000000000000000   
 202    1         0.0000000000000000       29.3979508082113234        2.6460801807570951   
 203    1         2.6460801807570951       26.7254098256466577        2.6460801807570951   
 204    1         2.6460801807570951       29.3979508082113234        0.0000000000000000   
 205    1         5.2921603615141901       26.7254098256466577        0.0000000000000000   
 206    1         5.2921603615141901       29.3979508082113234        2.6460801807570951   
 207    1         7.9382405422712852       26.7254098256466577        2.6460801807570951   
 208    1         7.9382405422712852       29.3979508082113234        0.0000000000000000   
 209    1        10.5843207230283802       26.7254098256466577        0.0000000000000000   
 210    1        10.5843207230283802       29.3979508082113234        2.6460801807570951   
 211    1        13.2304009037854762       26.7254098256466577        2.6460801807570951   
 212    1        13.2304009037854762       29.3979508082113234        0.0000000000000000   
 213    1        15.8764810845425703       26.7254098256466577        0.0000000000000000   
 214    1        15.8764810845425703       29.3979508082113234        2.6460801807570951   
 215    1        18.5225612652996645       26.7254098256466577        2.6460801807570951   
 216    1        18.5225612652996645       29.3979508082113234        0.0000000000000000   
 217    1        21.1686414460567605       26.7254098256466577        0.0000000000000000   
 218    1        21.1686414460567605       29.3979508082113234        2.6460801807570951   
 219    1        23.8147216268138564       26.7254098256466577        2.6460801807570951   
 220    1        23.8147216268138564       29.3979508082113234        0.0000000000000000   
 221    1        26.4608018075709523       26.7254098256466577        0.0000000000000000   
 222    1        26.4608018075709523       29.3979508082113234        2.6460801807570951   
 223    1        29.1068819883280447       26.7254098256466577        2.6460801807570951   
 224    1        29.1068819883280447       29.3979508082113234        0.0000000000000000   
 225    1        31.7529621690851407       26.7254098256466577        0.0000000000000000   
 226    1        31.7529621690851407       29.3979508082113234        2.6460801807570951   
 227    1        34.3990423498422331       26.7254098256466577        2.6460801807570951   
 228    1        34.3990423498422331       29.3979508082113234        0.0000000000000000   
 229    1        37.0451225305993290       26.7254098256466577        0.0000000000000000   
 230    1        37.0451225305993290       29.3979508082113234        2.6460801807570951   
 231    1        39.6912027113564250       26.7254098256466577        2.6460801807570951   
 232    1        39.6912027113564250       29.3979508082113234        0.0000000000000000   
 233    1        42.3372828921135209       26.7254098256466577        0.0000000000000000   
 234    1        42.3372828921135209       29.3979508082113234        2.6460801807570951   
 235    1        44.9833630728706169       26.7254098256466577        2.6460801807570951   
 236    1        44.9833630728706169       29.3979508082113234        0.0000000000000000   
 237    1        47.6294432536277128       26.7254098256466577        0.0000000000000000   
 238    1        47.6294432536277128       29.3979508082113234        2.6460801807570951   
 239    1        50.2755234343848088       26.7254098256466577        2.6460801807570951   
 240    1        50.2755234343848088       29.3979508082113234        0.0000000000000000   
 241    1         0.0000000000000000       32.0704917907759892        0.0000000000000000   
 242    1         0.0000000000000000       34.7430327733406585        2.6460801807570951   
 243    1         2.6460801807570951       32.0704917907759892        2.6460801807570951   
 244    1         2.6460801807570951       34.7430327733406585        0.0000000000000000   
 245    1         5.2921603615141901       32.0704917907759892        0.0000000000000000   
 246    1         5.2921603615141901       34.7430327733406585        2.6460801807570951   
 247    1         7.9382405422712852       32.0704917907759892        2.6460801807570951   
 248    1         7.9382405422712852       34.7430327733406585        0.0000000000000000   
 249    1        10.5843207230283802       32.0704917907759892        0.0000000000000000   
 250    1        10.5843207230283802       34.7430327733406585        2.6460801807570951   
 251    1        13.2304009037854762       32.0704917907759892        2.6460801807570951   
 252    1        13.2304009037854762       34.7430327733406585        0.0000000000000000   
 253    1        15.8764810845425703       32.0704917907759892        0.0000000000000000   
 254    1        15.8764810845425703       34.7430327733406585        2.6460801807570951   
 255    1        18.5225612652996645       32.0704917907759892        2.6460801807570951   
 256    1        18.5225612652996645       34.7430327733406585        0.0000000000000000   
 257    1        21.1686414460567605       32.0704917907759892        0.0000000000000000   
 258    1        21.1686414460567605       34.7430327733406585        2.6460801807570951   
 259    1        23.8147216268138564       32.0704917907759892        2.6460801807570951   
 260    1        23.8147216268138564       34.7430327733406585        0.0000000000000000   
 261    1        26.4608018075709523       32.0704917907759892        0.0000000000000000   
 262    1        26.4608018075709523       34.7430327733406585        2.6460801807570951   
 263    1        29.1068819883280447       32.0704917907759892        2.6460801807570951   
 264    1        29.1068819883280447       34.7430327733406585        0.0000000000000000   
 265    1        31.7529621690851407       32.0704917907759892        0.0000000000000000   
 266    1        31.7529621690851407       34.7430327733406585        2.6460801807570951   
 267    1        34.3990423498422331       32.0704917907759892        2.6460801807570951   
 268    1        34.3990423498422331       34.7430327733406585        0.0000000000000000   
 269    1        37.0451225305993290       32.0704917907759892        0.0000000000000000   
 270    1        37.0451225305993290       34.7430327733406585        2.6460801807570951   
 271    1        39.6912027113564250       32.0704917907759892        2.6460801807570951   
 272    1        39.6912027113564250       34.7430327733406585        0.0000000000000000   
 273    1        42.3372828921135209       32.0704917907759892        0.0000000000000000   
 274    1        42.3372828921135209       34.7430327733406585        2.6460801807570951   
 275    1        44.9833630728706169       32.0704917907759892        2.6460801807570951   
 276    1        44.9833630728706169       34.7430327733406585        0.0000000000000000   
 277    1        47.6294432536277128       32.0704917907759892        0.0000000000000000   
 278    1        47.6294432536277128       34.7430327733406585        2.6460801807570951   
 279    1        50.2755234343848088       32.0704917907759892        2.6460801807570951   
 280    1        50.2755234343848088       34.7430327733406585        0.0000000000000000   
 281    1         0.0000000000000000       37.4155737559053208        0.0000000000000000   
 282    1         0.0000000000000000       40.0881147384699830        2.6460801807570951   
 283    1         2.6460801807570951       37.4155737559053208        2.6460801807570951   
 284    1         2.6460801807570951       40.0881147384699830        0.0000000000000000   
 285    1         5.2921603615141901       37.4155737559053208        0.0000000000000000   
 286    1         5.2921603615141901       40.0881147384699830        2.6460801807570951   
 287    1         7.9382405422712852       37.4155737559053208        2.6460801807570951   
 288    1         7.9382405422712852       40.0881147384699830        0.0000000000000000   
 289    1        10.5843207230283802       37.4155737559053208        0.0000000000000000   
 290    1        10.5843207230283802       40.0881147384699830        2.6460801807570951   
 291    1        13.2304009037854762       37.4155737559053208        2.6460801807570951   
 292    1        13.2304009037854762       40.0881147384699830        0.0000000000000000   
 293    1        15.8764810845425703       37.4155737559053208        0.0000000000000000   
 294    1        15.8764810845425703       40.0881147384699830        2.6460801807570951   
 295    1        18.5225612652996645       37.4155737559053208        2.6460801807570951   
 296    1        18.5225612652996645       40.0881147384699830        0.0000000000000000   
 297    1        21.1686414460567605       37.4155737559053208        0.0000000000000000   
 298    1        21.1686414460567605       40.0881147384699830        2.6460801807570951   
 299    1        23.8147216268138564       37.4155737559053208        2.6460801807570951   
 300    1        23.8147216268138564       40.0881147384699830        0.0000000000000000   
 301    1        26.4608018075709523       37.4155737559053208        0.0000000000000000   
 302    1        26.4608018075709523       40.0881147384699830        2.6460801807570951   
 303    1        29.1068819883280447       37.4155737559053208        2.6460801807570951   
 304    1        29.1068819883280447       40.0881147384699830        0.0000000000000000   
 305    1        31.7529621690851407       37.4155737559053208        0.0000000000000000   
 306    1        31.7529621690851407       40.0881147384699830        2.6460801807570951   
 307    1        34.3990423498422331       37.4155737559053208        2.6460801807570951   
 308    1        34.3990423498422331       40.0881147384699830        0.0000000000000000   
 309    1        37.0451225305993290       37.4155737559053208        0.0000000000000000   
 310    1        37.0451225305993290       40.0881147384699830        2.6460801807570951   
 311    1        39.6912027113564250       37.4155737559053208        2.6460801807570951   
 312    1        39.6912027113564250       40.0881147384699830        0.0000000000000000   
 313    1        42.3372828921135209       37.4155737559053208        0.0000000000000000   
 314    1        42.3372828921135209       40.0881147384699830        2.6460801807570951   
 315    1        44.9833630728706169       37.4155737559053208        2.6460801807570951   
 316    1        44.9833630728706169       40.0881147384699830        0.0000000000000000   
 317    1        47.6294432536277128       37.4155737559053208        0.0000000000000000   
 318    1        47.6294432536277128       40.0881147384699830        2.6460801807570951   
 319    1        50.2755234343848088       37.4155737559053208        2.6460801807570951   
 320    1        50.2755234343848088       40.0881147384699830        0.0000000000000000   
 321    1         0.0000000000000000       42.7606557210346523        0.0000000000000000   
 322    1         0.0000000000000000       45.4331967035993216        2.6460801807570951   
 323    1         2.6460801807570951       42.7606557210346523        2.6460801807570951   